version 2
run General-0-20220517-16:01:10-13984
attr configname General
attr datetime 20220517-16:01:10
attr experiment General
attr inifile omnetpp.ini
attr iterationvars $traffic=1
attr iterationvars2 "$traffic=1, $repetition=0"
attr measurement $traffic=1
attr network BMACExampleNetwork
attr processid 13984
attr repetition 0
attr replication #0
attr resultdir results
attr runnumber 0
attr seedset 0
attr traffic 1

vector 24  BMACExampleNetwork.node[1].nic.mac  ""  ETV
vector 25  BMACExampleNetwork.node[2].nic.mac  ""  ETV
vector 26  BMACExampleNetwork.node[3].nic.mac  ""  ETV
vector 27  BMACExampleNetwork.node[4].nic.mac  ""  ETV
vector 28  BMACExampleNetwork.node[5].nic.mac  ""  ETV
24	19	0.523333333333	85
24	520	50.719999999995	315
24	841	100.86999999999	425
24	1162	151.019999999985	535
24	1483	201.16999999998	645
24	1804	251.319999999975	755
24	2125	301.46999999997	865
24	2446	351.619999999965	975
24	2767	401.76999999996	1085
24	3088	451.919999999955	1195
24	3409	502.06999999995	1305
24	3730	552.219999999945	1415
24	4051	602.36999999994	1525
24	4372	652.519999999935	1635
24	4693	702.66999999993	1745
24	5014	752.819999999925	1855
24	5335	802.96999999992	1965
24	5656	853.119999999915	2075
24	5977	903.26999999991	2185
24	6298	953.419999999905	2295
25	41	0.543333333333	97
25	542	50.723333333328	327
25	863	100.873333333323	437
25	1184	151.023333333318	547
25	1505	201.173333333313	657
25	1826	251.323333333308	767
25	2147	301.473333333303	877
25	2468	351.623333333298	987
25	2789	401.773333333293	1097
25	3110	451.923333333288	1207
25	3431	502.073333333283	1317
25	3752	552.223333333278	1427
25	4073	602.373333333273	1537
25	4394	652.523333333268	1647
25	4715	702.673333333263	1757
25	5036	752.823333333258	1867
25	5357	802.973333333253	1977
25	5678	853.123333333248	2087
25	5999	903.273333333243	2197
25	6320	953.423333333238	2307
26	63	0.559999999999	109
26	564	50.726666666661	339
26	885	100.876666666656	449
26	1206	151.026666666651	559
26	1527	201.176666666646	669
26	1848	251.326666666641	779
26	2169	301.476666666636	889
26	2490	351.626666666631	999
26	2811	401.776666666626	1109
26	3132	451.926666666621	1219
26	3453	502.076666666616	1329
26	3774	552.226666666611	1439
26	4095	602.376666666606	1549
26	4416	652.526666666601	1659
26	4737	702.676666666596	1769
26	5058	752.826666666591	1879
26	5379	802.976666666586	1989
26	5700	853.126666666581	2099
26	6021	903.276666666576	2209
26	6342	953.426666666571	2319
27	85	0.573333333332	121
27	586	50.729999999994	351
27	907	100.879999999989	461
27	1228	151.029999999984	571
27	1549	201.179999999979	681
27	1870	251.329999999974	791
27	2191	301.479999999969	901
27	2512	351.629999999964	1011
27	2833	401.779999999959	1121
27	3154	451.929999999954	1231
27	3475	502.079999999949	1341
27	3796	552.229999999944	1451
27	4117	602.379999999939	1561
27	4438	652.529999999934	1671
27	4759	702.679999999929	1781
27	5080	752.829999999924	1891
27	5401	802.979999999919	2001
27	5722	853.129999999914	2111
27	6043	903.279999999909	2221
27	6364	953.429999999904	2331
28	107	0.583333333332	1000
28	608	50.733333333327	1000
28	929	100.883333333322	1000
28	1250	151.033333333317	1000
28	1571	201.183333333312	1000
28	1892	251.333333333307	1000
28	2213	301.483333333302	1000
28	2534	351.633333333297	1000
28	2855	401.783333333292	1000
28	3176	451.933333333287	1000
28	3497	502.083333333282	1000
28	3818	552.233333333277	1000
28	4139	602.383333333272	1000
28	4460	652.533333333267	1000
28	4781	702.683333333262	1000
28	5102	752.833333333257	1000
28	5423	802.983333333252	1000
28	5744	853.133333333247	1000
28	6065	903.283333333242	1000
28	6386	953.433333333237	1000
