version 2
run General-0-20220517-15:30:52-612
attr configname General
attr datetime 20220517-15:30:52
attr experiment General
attr inifile omnetpp.ini
attr iterationvars $traffic=1
attr iterationvars2 "$traffic=1, $repetition=0"
attr measurement $traffic=1
attr network BMACExampleNetwork
attr processid 612
attr repetition 0
attr replication #0
attr resultdir results
attr runnumber 0
attr seedset 0
attr traffic 1

vector 404  BMACExampleNetwork.node[1].nic.mac  ""  ETV
vector 405  BMACExampleNetwork.node[2].nic.mac  ""  ETV
vector 406  BMACExampleNetwork.node[3].nic.mac  ""  ETV
vector 407  BMACExampleNetwork.node[4].nic.mac  ""  ETV
vector 408  BMACExampleNetwork.node[5].nic.mac  ""  ETV
vector 409  BMACExampleNetwork.node[6].nic.mac  ""  ETV
vector 410  BMACExampleNetwork.node[7].nic.mac  ""  ETV
vector 411  BMACExampleNetwork.node[8].nic.mac  ""  ETV
vector 412  BMACExampleNetwork.node[9].nic.mac  ""  ETV
vector 413  BMACExampleNetwork.node[10].nic.mac  ""  ETV
vector 414  BMACExampleNetwork.node[11].nic.mac  ""  ETV
vector 415  BMACExampleNetwork.node[12].nic.mac  ""  ETV
vector 416  BMACExampleNetwork.node[13].nic.mac  ""  ETV
vector 417  BMACExampleNetwork.node[14].nic.mac  ""  ETV
vector 418  BMACExampleNetwork.node[15].nic.mac  ""  ETV
vector 419  BMACExampleNetwork.node[16].nic.mac  ""  ETV
vector 420  BMACExampleNetwork.node[17].nic.mac  ""  ETV
vector 421  BMACExampleNetwork.node[18].nic.mac  ""  ETV
vector 422  BMACExampleNetwork.node[19].nic.mac  ""  ETV
vector 423  BMACExampleNetwork.node[20].nic.mac  ""  ETV
vector 424  BMACExampleNetwork.node[21].nic.mac  ""  ETV
vector 425  BMACExampleNetwork.node[22].nic.mac  ""  ETV
vector 426  BMACExampleNetwork.node[23].nic.mac  ""  ETV
vector 427  BMACExampleNetwork.node[24].nic.mac  ""  ETV
vector 428  BMACExampleNetwork.node[25].nic.mac  ""  ETV
vector 429  BMACExampleNetwork.node[26].nic.mac  ""  ETV
vector 430  BMACExampleNetwork.node[27].nic.mac  ""  ETV
vector 431  BMACExampleNetwork.node[28].nic.mac  ""  ETV
vector 432  BMACExampleNetwork.node[29].nic.mac  ""  ETV
vector 433  BMACExampleNetwork.node[30].nic.mac  ""  ETV
vector 434  BMACExampleNetwork.node[31].nic.mac  ""  ETV
vector 435  BMACExampleNetwork.node[32].nic.mac  ""  ETV
vector 436  BMACExampleNetwork.node[33].nic.mac  ""  ETV
vector 437  BMACExampleNetwork.node[34].nic.mac  ""  ETV
vector 438  BMACExampleNetwork.node[35].nic.mac  ""  ETV
vector 439  BMACExampleNetwork.node[36].nic.mac  ""  ETV
vector 440  BMACExampleNetwork.node[37].nic.mac  ""  ETV
vector 441  BMACExampleNetwork.node[38].nic.mac  ""  ETV
vector 442  BMACExampleNetwork.node[39].nic.mac  ""  ETV
vector 443  BMACExampleNetwork.node[40].nic.mac  ""  ETV
vector 444  BMACExampleNetwork.node[41].nic.mac  ""  ETV
vector 445  BMACExampleNetwork.node[42].nic.mac  ""  ETV
vector 446  BMACExampleNetwork.node[43].nic.mac  ""  ETV
vector 447  BMACExampleNetwork.node[44].nic.mac  ""  ETV
vector 448  BMACExampleNetwork.node[45].nic.mac  ""  ETV
vector 449  BMACExampleNetwork.node[46].nic.mac  ""  ETV
vector 450  BMACExampleNetwork.node[47].nic.mac  ""  ETV
vector 451  BMACExampleNetwork.node[48].nic.mac  ""  ETV
vector 452  BMACExampleNetwork.node[49].nic.mac  ""  ETV
vector 453  BMACExampleNetwork.node[50].nic.mac  ""  ETV
vector 454  BMACExampleNetwork.node[51].nic.mac  ""  ETV
vector 455  BMACExampleNetwork.node[52].nic.mac  ""  ETV
vector 456  BMACExampleNetwork.node[53].nic.mac  ""  ETV
vector 457  BMACExampleNetwork.node[54].nic.mac  ""  ETV
vector 458  BMACExampleNetwork.node[55].nic.mac  ""  ETV
vector 459  BMACExampleNetwork.node[56].nic.mac  ""  ETV
vector 460  BMACExampleNetwork.node[57].nic.mac  ""  ETV
vector 461  BMACExampleNetwork.node[58].nic.mac  ""  ETV
vector 462  BMACExampleNetwork.node[59].nic.mac  ""  ETV
vector 463  BMACExampleNetwork.node[60].nic.mac  ""  ETV
vector 464  BMACExampleNetwork.node[61].nic.mac  ""  ETV
vector 465  BMACExampleNetwork.node[62].nic.mac  ""  ETV
vector 466  BMACExampleNetwork.node[63].nic.mac  ""  ETV
vector 467  BMACExampleNetwork.node[64].nic.mac  ""  ETV
vector 468  BMACExampleNetwork.node[65].nic.mac  ""  ETV
vector 469  BMACExampleNetwork.node[66].nic.mac  ""  ETV
vector 470  BMACExampleNetwork.node[67].nic.mac  ""  ETV
vector 471  BMACExampleNetwork.node[68].nic.mac  ""  ETV
vector 472  BMACExampleNetwork.node[69].nic.mac  ""  ETV
vector 473  BMACExampleNetwork.node[70].nic.mac  ""  ETV
vector 474  BMACExampleNetwork.node[71].nic.mac  ""  ETV
vector 475  BMACExampleNetwork.node[72].nic.mac  ""  ETV
vector 476  BMACExampleNetwork.node[73].nic.mac  ""  ETV
vector 477  BMACExampleNetwork.node[74].nic.mac  ""  ETV
vector 478  BMACExampleNetwork.node[75].nic.mac  ""  ETV
vector 479  BMACExampleNetwork.node[76].nic.mac  ""  ETV
vector 480  BMACExampleNetwork.node[77].nic.mac  ""  ETV
vector 481  BMACExampleNetwork.node[78].nic.mac  ""  ETV
vector 482  BMACExampleNetwork.node[79].nic.mac  ""  ETV
vector 483  BMACExampleNetwork.node[80].nic.mac  ""  ETV
vector 484  BMACExampleNetwork.node[81].nic.mac  ""  ETV
vector 485  BMACExampleNetwork.node[82].nic.mac  ""  ETV
vector 486  BMACExampleNetwork.node[83].nic.mac  ""  ETV
vector 487  BMACExampleNetwork.node[84].nic.mac  ""  ETV
vector 488  BMACExampleNetwork.node[85].nic.mac  ""  ETV
vector 489  BMACExampleNetwork.node[86].nic.mac  ""  ETV
vector 490  BMACExampleNetwork.node[87].nic.mac  ""  ETV
vector 491  BMACExampleNetwork.node[88].nic.mac  ""  ETV
vector 492  BMACExampleNetwork.node[89].nic.mac  ""  ETV
vector 493  BMACExampleNetwork.node[90].nic.mac  ""  ETV
vector 494  BMACExampleNetwork.node[91].nic.mac  ""  ETV
vector 495  BMACExampleNetwork.node[92].nic.mac  ""  ETV
vector 496  BMACExampleNetwork.node[93].nic.mac  ""  ETV
vector 497  BMACExampleNetwork.node[94].nic.mac  ""  ETV
vector 498  BMACExampleNetwork.node[95].nic.mac  ""  ETV
vector 499  BMACExampleNetwork.node[96].nic.mac  ""  ETV
vector 500  BMACExampleNetwork.node[97].nic.mac  ""  ETV
vector 501  BMACExampleNetwork.node[98].nic.mac  ""  ETV
vector 502  BMACExampleNetwork.node[99].nic.mac  ""  ETV
vector 503  BMACExampleNetwork.node[100].nic.mac  ""  ETV
404	209	0.84	1415
404	67068	70.6699999999	43635
404	130089	123.6699999998	83835
404	193312	176.6699999997	124035
404	256333	229.6699999996	164235
404	319556	282.6699999995	204435
404	382779	335.6699999994	244635
404	445800	388.6699999993	284835
404	509023	441.6699999992	325035
404	572044	494.6699999991	365235
404	635267	547.669999999	405435
404	698490	600.6699999989	445635
404	761511	653.6699999988	485835
404	824734	706.6699999987	526035
404	887755	759.6699999986	566235
404	950978	812.6699999985	606435
404	1014201	865.6699999984	646635
404	1077222	918.6699999983	686835
404	1140445	971.6699999982	727035
405	516	1.176666666666	1617
405	67375	70.673333333233	43837
405	130396	123.673333333133	84037
405	193619	176.673333333033	124237
405	256640	229.673333332933	164437
405	319863	282.673333332833	204637
405	383086	335.673333332733	244837
405	446107	388.673333332633	285037
405	509330	441.673333332533	325237
405	572351	494.673333332433	365437
405	635574	547.673333332333	405637
405	698797	600.673333332233	445837
405	761818	653.673333332133	486037
405	825041	706.673333332033	526237
405	888062	759.673333331933	566437
405	951285	812.673333331833	606637
405	1014508	865.673333331733	646837
405	1077529	918.673333331633	687037
405	1140752	971.673333331533	727237
406	823	1.509999999999	1819
406	67682	70.676666666566	44039
406	130703	123.676666666466	84239
406	193926	176.676666666366	124439
406	256947	229.676666666266	164639
406	320170	282.676666666166	204839
406	383393	335.676666666066	245039
406	446414	388.676666665966	285239
406	509637	441.676666665866	325439
406	572658	494.676666665766	365639
406	635881	547.676666665666	405839
406	699104	600.676666665566	446039
406	762125	653.676666665466	486239
406	825348	706.676666665366	526439
406	888369	759.676666665266	566639
406	951592	812.676666665166	606839
406	1014815	865.676666665066	647039
406	1077836	918.676666664966	687239
406	1141059	971.676666664866	727439
407	1130	1.839999999999	2021
407	67989	70.679999999899	44241
407	131010	123.679999999799	84441
407	194233	176.679999999699	124641
407	257254	229.679999999599	164841
407	320477	282.679999999499	205041
407	383700	335.679999999399	245241
407	446721	388.679999999299	285441
407	509944	441.679999999199	325641
407	572965	494.679999999099	365841
407	636188	547.679999998999	406041
407	699411	600.679999998899	446241
407	762432	653.679999998799	486441
407	825655	706.679999998699	526641
407	888676	759.679999998599	566841
407	951899	812.679999998499	607041
407	1015122	865.679999998399	647241
407	1078143	918.679999998299	687441
407	1141366	971.679999998199	727641
408	1437	2.166666666665	2223
408	68296	70.683333333232	44443
408	131317	123.683333333132	84643
408	194540	176.683333333032	124843
408	257561	229.683333332932	165043
408	320784	282.683333332832	205243
408	384007	335.683333332732	245443
408	447028	388.683333332632	285643
408	510251	441.683333332532	325843
408	573272	494.683333332432	366043
408	636495	547.683333332332	406243
408	699718	600.683333332232	446443
408	762739	653.683333332132	486643
408	825962	706.683333332032	526843
408	888983	759.683333331932	567043
408	952206	812.683333331832	607243
408	1015429	865.683333331732	647443
408	1078450	918.683333331632	687643
408	1141673	971.683333331532	727843
409	1744	2.489999999998	2425
409	68603	70.686666666565	44645
409	131624	123.686666666465	84845
409	194847	176.686666666365	125045
409	257868	229.686666666265	165245
409	321091	282.686666666165	205445
409	384314	335.686666666065	245645
409	447335	388.686666665965	285845
409	510558	441.686666665865	326045
409	573579	494.686666665765	366245
409	636802	547.686666665665	406445
409	700025	600.686666665565	446645
409	763046	653.686666665465	486845
409	826269	706.686666665365	527045
409	889290	759.686666665265	567245
409	952513	812.686666665165	607445
409	1015736	865.686666665065	647645
409	1078757	918.686666664965	687845
409	1141980	971.686666664865	728045
410	2051	2.809999999998	2627
410	68910	70.689999999898	44847
410	131931	123.689999999798	85047
410	195154	176.689999999698	125247
410	258175	229.689999999598	165447
410	321398	282.689999999498	205647
410	384621	335.689999999398	245847
410	447642	388.689999999298	286047
410	510865	441.689999999198	326247
410	573886	494.689999999098	366447
410	637109	547.689999998998	406647
410	700332	600.689999998898	446847
410	763353	653.689999998798	487047
410	826576	706.689999998698	527247
410	889597	759.689999998598	567447
410	952820	812.689999998498	607647
410	1016043	865.689999998398	647847
410	1079064	918.689999998298	688047
410	1142287	971.689999998198	728247
411	2358	3.126666666664	2829
411	69217	70.693333333231	45049
411	132238	123.693333333131	85249
411	195461	176.693333333031	125449
411	258482	229.693333332931	165649
411	321705	282.693333332831	205849
411	384928	335.693333332731	246049
411	447949	388.693333332631	286249
411	511172	441.693333332531	326449
411	574193	494.693333332431	366649
411	637416	547.693333332331	406849
411	700639	600.693333332231	447049
411	763660	653.693333332131	487249
411	826883	706.693333332031	527449
411	889904	759.693333331931	567649
411	953127	812.693333331831	607849
411	1016350	865.693333331731	648049
411	1079371	918.693333331631	688249
411	1142594	971.693333331531	728449
412	2665	3.439999999997	3031
412	69524	70.696666666564	45251
412	132545	123.696666666464	85451
412	195768	176.696666666364	125651
412	258789	229.696666666264	165851
412	322012	282.696666666164	206051
412	385235	335.696666666064	246251
412	448256	388.696666665964	286451
412	511479	441.696666665864	326651
412	574500	494.696666665764	366851
412	637723	547.696666665664	407051
412	700946	600.696666665564	447251
412	763967	653.696666665464	487451
412	827190	706.696666665364	527651
412	890211	759.696666665264	567851
412	953434	812.696666665164	608051
412	1016657	865.696666665064	648251
412	1079678	918.696666664964	688451
412	1142901	971.696666664864	728651
413	2972	3.749999999997	3233
413	69831	70.699999999897	45453
413	132852	123.699999999797	85653
413	196075	176.699999999697	125853
413	259096	229.699999999597	166053
413	322319	282.699999999497	206253
413	385542	335.699999999397	246453
413	448563	388.699999999297	286653
413	511786	441.699999999197	326853
413	574807	494.699999999097	367053
413	638030	547.699999998997	407253
413	701253	600.699999998897	447453
413	764274	653.699999998797	487653
413	827497	706.699999998697	527853
413	890518	759.699999998597	568053
413	953741	812.699999998497	608253
413	1016964	865.699999998397	648453
413	1079985	918.699999998297	688653
413	1143208	971.699999998197	728853
414	3279	4.056666666663	3435
414	70138	70.70333333323	45655
414	133159	123.70333333313	85855
414	196382	176.70333333303	126055
414	259403	229.70333333293	166255
414	322626	282.70333333283	206455
414	385849	335.70333333273	246655
414	448870	388.70333333263	286855
414	512093	441.70333333253	327055
414	575114	494.70333333243	367255
414	638337	547.70333333233	407455
414	701560	600.70333333223	447655
414	764581	653.70333333213	487855
414	827804	706.70333333203	528055
414	890825	759.70333333193	568255
414	954048	812.70333333183	608455
414	1017271	865.70333333173	648655
414	1080292	918.70333333163	688855
414	1143515	971.70333333153	729055
415	3586	4.359999999996	3637
415	70445	70.706666666563	45857
415	133466	123.706666666463	86057
415	196689	176.706666666363	126257
415	259710	229.706666666263	166457
415	322933	282.706666666163	206657
415	386156	335.706666666063	246857
415	449177	388.706666665963	287057
415	512400	441.706666665863	327257
415	575421	494.706666665763	367457
415	638644	547.706666665663	407657
415	701867	600.706666665563	447857
415	764888	653.706666665463	488057
415	828111	706.706666665363	528257
415	891132	759.706666665263	568457
415	954355	812.706666665163	608657
415	1017578	865.706666665063	648857
415	1080599	918.706666664963	689057
415	1143822	971.706666664863	729257
416	3893	4.659999999996	3839
416	70752	70.709999999896	46059
416	133773	123.709999999796	86259
416	196996	176.709999999696	126459
416	260017	229.709999999596	166659
416	323240	282.709999999496	206859
416	386463	335.709999999396	247059
416	449484	388.709999999296	287259
416	512707	441.709999999196	327459
416	575728	494.709999999096	367659
416	638951	547.709999998996	407859
416	702174	600.709999998896	448059
416	765195	653.709999998796	488259
416	828418	706.709999998696	528459
416	891439	759.709999998596	568659
416	954662	812.709999998496	608859
416	1017885	865.709999998396	649059
416	1080906	918.709999998296	689259
416	1144129	971.709999998196	729459
417	4200	4.956666666662	4041
417	71059	70.713333333229	46261
417	134080	123.713333333129	86461
417	197303	176.713333333029	126661
417	260324	229.713333332929	166861
417	323547	282.713333332829	207061
417	386770	335.713333332729	247261
417	449791	388.713333332629	287461
417	513014	441.713333332529	327661
417	576035	494.713333332429	367861
417	639258	547.713333332329	408061
417	702481	600.713333332229	448261
417	765502	653.713333332129	488461
417	828725	706.713333332029	528661
417	891746	759.713333331929	568861
417	954969	812.713333331829	609061
417	1018192	865.713333331729	649261
417	1081213	918.713333331629	689461
417	1144436	971.713333331529	729661
418	4709	5.249999999995	4243
418	71366	70.716666666562	46463
418	134387	123.716666666462	86663
418	197610	176.716666666362	126863
418	260631	229.716666666262	167063
418	323854	282.716666666162	207263
418	387077	335.716666666062	247463
418	450098	388.716666665962	287663
418	513321	441.716666665862	327863
418	576342	494.716666665762	368063
418	639565	547.716666665662	408263
418	702788	600.716666665562	448463
418	765809	653.716666665462	488663
418	829032	706.716666665362	528863
418	892053	759.716666665262	569063
418	955276	812.716666665162	609263
418	1018499	865.716666665062	649463
418	1081520	918.716666664962	689663
418	1144743	971.716666664862	729863
419	5016	5.539999999995	4445
419	71673	70.719999999895	46665
419	134694	123.719999999795	86865
419	197917	176.719999999695	127065
419	260938	229.719999999595	167265
419	324161	282.719999999495	207465
419	387384	335.719999999395	247665
419	450405	388.719999999295	287865
419	513628	441.719999999195	328065
419	576649	494.719999999095	368265
419	639872	547.719999998995	408465
419	703095	600.719999998895	448665
419	766116	653.719999998795	488865
419	829339	706.719999998695	529065
419	892360	759.719999998595	569265
419	955583	812.719999998495	609465
419	1018806	865.719999998395	649665
419	1081827	918.719999998295	689865
419	1145050	971.719999998195	730065
420	5323	5.826666666661	4647
420	71980	70.723333333228	46867
420	135001	123.723333333128	87067
420	198224	176.723333333028	127267
420	261245	229.723333332928	167467
420	324468	282.723333332828	207667
420	387691	335.723333332728	247867
420	450712	388.723333332628	288067
420	513935	441.723333332528	328267
420	576956	494.723333332428	368467
420	640179	547.723333332328	408667
420	703402	600.723333332228	448867
420	766423	653.723333332128	489067
420	829646	706.723333332028	529267
420	892667	759.723333331928	569467
420	955890	812.723333331828	609667
420	1019113	865.723333331728	649867
420	1082134	918.723333331628	690067
420	1145357	971.723333331528	730267
421	5630	6.109999999994	4849
421	72287	70.726666666561	47069
421	135308	123.726666666461	87269
421	198531	176.726666666361	127469
421	261552	229.726666666261	167669
421	324775	282.726666666161	207869
421	387998	335.726666666061	248069
421	451019	388.726666665961	288269
421	514242	441.726666665861	328469
421	577263	494.726666665761	368669
421	640486	547.726666665661	408869
421	703709	600.726666665561	449069
421	766730	653.726666665461	489269
421	829953	706.726666665361	529469
421	892974	759.726666665261	569669
421	956197	812.726666665161	609869
421	1019420	865.726666665061	650069
421	1082441	918.726666664961	690269
421	1145664	971.726666664861	730469
422	5937	6.389999999994	5051
422	72594	70.729999999894	47271
422	135615	123.729999999794	87471
422	198838	176.729999999694	127671
422	261859	229.729999999594	167871
422	325082	282.729999999494	208071
422	388305	335.729999999394	248271
422	451326	388.729999999294	288471
422	514549	441.729999999194	328671
422	577570	494.729999999094	368871
422	640793	547.729999998994	409071
422	704016	600.729999998894	449271
422	767037	653.729999998794	489471
422	830260	706.729999998694	529671
422	893281	759.729999998594	569871
422	956504	812.729999998494	610071
422	1019727	865.729999998394	650271
422	1082748	918.729999998294	690471
422	1145971	971.729999998194	730671
423	6244	6.66666666666	5253
423	72901	70.733333333227	47473
423	135922	123.733333333127	87673
423	199145	176.733333333027	127873
423	262166	229.733333332927	168073
423	325389	282.733333332827	208273
423	388612	335.733333332727	248473
423	451633	388.733333332627	288673
423	514856	441.733333332527	328873
423	577877	494.733333332427	369073
423	641100	547.733333332327	409273
423	704323	600.733333332227	449473
423	767344	653.733333332127	489673
423	830567	706.733333332027	529873
423	893588	759.733333331927	570073
423	956811	812.733333331827	610273
423	1020034	865.733333331727	650473
423	1083055	918.733333331627	690673
423	1146278	971.733333331527	730873
424	6551	6.939999999993	5455
424	73208	70.73666666656	47675
424	136229	123.73666666646	87875
424	199452	176.73666666636	128075
424	262473	229.73666666626	168275
424	325696	282.73666666616	208475
424	388919	335.73666666606	248675
424	451940	388.73666666596	288875
424	515163	441.73666666586	329075
424	578184	494.73666666576	369275
424	641407	547.73666666566	409475
424	704630	600.73666666556	449675
424	767651	653.73666666546	489875
424	830874	706.73666666536	530075
424	893895	759.73666666526	570275
424	957118	812.73666666516	610475
424	1020341	865.73666666506	650675
424	1083362	918.73666666496	690875
424	1146585	971.73666666486	731075
425	6858	7.209999999993	5657
425	73515	70.739999999893	47877
425	136536	123.739999999793	88077
425	199759	176.739999999693	128277
425	262780	229.739999999593	168477
425	326003	282.739999999493	208677
425	389226	335.739999999393	248877
425	452247	388.739999999293	289077
425	515470	441.739999999193	329277
425	578491	494.739999999093	369477
425	641714	547.739999998993	409677
425	704937	600.739999998893	449877
425	767958	653.739999998793	490077
425	831181	706.739999998693	530277
425	894202	759.739999998593	570477
425	957425	812.739999998493	610677
425	1020648	865.739999998393	650877
425	1083669	918.739999998293	691077
425	1146892	971.739999998193	731277
426	7165	7.476666666659	5859
426	73822	70.743333333226	48079
426	136843	123.743333333126	88279
426	200066	176.743333333026	128479
426	263087	229.743333332926	168679
426	326310	282.743333332826	208879
426	389533	335.743333332726	249079
426	452554	388.743333332626	289279
426	515777	441.743333332526	329479
426	578798	494.743333332426	369679
426	642021	547.743333332326	409879
426	705244	600.743333332226	450079
426	768265	653.743333332126	490279
426	831488	706.743333332026	530479
426	894509	759.743333331926	570679
426	957732	812.743333331826	610879
426	1020955	865.743333331726	651079
426	1083976	918.743333331626	691279
426	1147199	971.743333331526	731479
427	7472	7.739999999992	6061
427	74129	70.746666666559	48281
427	137150	123.746666666459	88481
427	200373	176.746666666359	128681
427	263394	229.746666666259	168881
427	326617	282.746666666159	209081
427	389840	335.746666666059	249281
427	452861	388.746666665959	289481
427	516084	441.746666665859	329681
427	579105	494.746666665759	369881
427	642328	547.746666665659	410081
427	705551	600.746666665559	450281
427	768572	653.746666665459	490481
427	831795	706.746666665359	530681
427	894816	759.746666665259	570881
427	958039	812.746666665159	611081
427	1021262	865.746666665059	651281
427	1084283	918.746666664959	691481
427	1147506	971.746666664859	731681
428	7779	7.999999999992	6263
428	74436	70.749999999892	48483
428	137457	123.749999999792	88683
428	200680	176.749999999692	128883
428	263701	229.749999999592	169083
428	326924	282.749999999492	209283
428	390147	335.749999999392	249483
428	453168	388.749999999292	289683
428	516391	441.749999999192	329883
428	579412	494.749999999092	370083
428	642635	547.749999998992	410283
428	705858	600.749999998892	450483
428	768879	653.749999998792	490683
428	832102	706.749999998692	530883
428	895123	759.749999998592	571083
428	958346	812.749999998492	611283
428	1021569	865.749999998392	651483
428	1084590	918.749999998292	691683
428	1147813	971.749999998192	731883
429	8086	8.256666666658	6465
429	74743	70.753333333225	48685
429	137764	123.753333333125	88885
429	200987	176.753333333025	129085
429	264008	229.753333332925	169285
429	327231	282.753333332825	209485
429	390454	335.753333332725	249685
429	453475	388.753333332625	289885
429	516698	441.753333332525	330085
429	579719	494.753333332425	370285
429	642942	547.753333332325	410485
429	706165	600.753333332225	450685
429	769186	653.753333332125	490885
429	832409	706.753333332025	531085
429	895430	759.753333331925	571285
429	958653	812.753333331825	611485
429	1021876	865.753333331725	651685
429	1084897	918.753333331625	691885
429	1148120	971.753333331525	732085
430	8393	8.509999999991	6667
430	75050	70.756666666558	48887
430	138071	123.756666666458	89087
430	201294	176.756666666358	129287
430	264315	229.756666666258	169487
430	327538	282.756666666158	209687
430	390761	335.756666666058	249887
430	453782	388.756666665958	290087
430	517005	441.756666665858	330287
430	580026	494.756666665758	370487
430	643249	547.756666665658	410687
430	706472	600.756666665558	450887
430	769493	653.756666665458	491087
430	832716	706.756666665358	531287
430	895737	759.756666665258	571487
430	958960	812.756666665158	611687
430	1022183	865.756666665058	651887
430	1085204	918.756666664958	692087
430	1148427	971.756666664858	732287
431	8700	8.759999999991	6869
431	75357	70.759999999891	49089
431	138378	123.759999999791	89289
431	201601	176.759999999691	129489
431	264622	229.759999999591	169689
431	327845	282.759999999491	209889
431	391068	335.759999999391	250089
431	454089	388.759999999291	290289
431	517312	441.759999999191	330489
431	580333	494.759999999091	370689
431	643556	547.759999998991	410889
431	706779	600.759999998891	451089
431	769800	653.759999998791	491289
431	833023	706.759999998691	531489
431	896044	759.759999998591	571689
431	959267	812.759999998491	611889
431	1022490	865.759999998391	652089
431	1085511	918.759999998291	692289
431	1148734	971.759999998191	732489
432	9007	9.006666666657	7071
432	75664	70.763333333224	49291
432	138685	123.763333333124	89491
432	201908	176.763333333024	129691
432	264929	229.763333332924	169891
432	328152	282.763333332824	210091
432	391375	335.763333332724	250291
432	454396	388.763333332624	290491
432	517619	441.763333332524	330691
432	580640	494.763333332424	370891
432	643863	547.763333332324	411091
432	707086	600.763333332224	451291
432	770107	653.763333332124	491491
432	833330	706.763333332024	531691
432	896351	759.763333331924	571891
432	959574	812.763333331824	612091
432	1022797	865.763333331724	652291
432	1085818	918.763333331624	692491
432	1149041	971.763333331524	732691
433	9314	9.24999999999	7273
433	75971	70.766666666557	49493
433	138992	123.766666666457	89693
433	202215	176.766666666357	129893
433	265236	229.766666666257	170093
433	328459	282.766666666157	210293
433	391682	335.766666666057	250493
433	454703	388.766666665957	290693
433	517926	441.766666665857	330893
433	580947	494.766666665757	371093
433	644170	547.766666665657	411293
433	707393	600.766666665557	451493
433	770414	653.766666665457	491693
433	833637	706.766666665357	531893
433	896658	759.766666665257	572093
433	959881	812.766666665157	612293
433	1023104	865.766666665057	652493
433	1086125	918.766666664957	692693
433	1149348	971.766666664857	732893
434	9621	9.48999999999	7475
434	76278	70.76999999989	49695
434	139299	123.76999999979	89895
434	202522	176.76999999969	130095
434	265543	229.76999999959	170295
434	328766	282.76999999949	210495
434	391989	335.76999999939	250695
434	455010	388.76999999929	290895
434	518233	441.76999999919	331095
434	581254	494.76999999909	371295
434	644477	547.76999999899	411495
434	707700	600.76999999889	451695
434	770721	653.76999999879	491895
434	833944	706.76999999869	532095
434	896965	759.76999999859	572295
434	960188	812.76999999849	612495
434	1023411	865.76999999839	652695
434	1086432	918.76999999829	692895
434	1149655	971.76999999819	733095
435	9928	9.726666666656	7677
435	76585	70.773333333223	49897
435	139606	123.773333333123	90097
435	202829	176.773333333023	130297
435	265850	229.773333332923	170497
435	329073	282.773333332823	210697
435	392296	335.773333332723	250897
435	455317	388.773333332623	291097
435	518540	441.773333332523	331297
435	581561	494.773333332423	371497
435	644784	547.773333332323	411697
435	708007	600.773333332223	451897
435	771028	653.773333332123	492097
435	834251	706.773333332023	532297
435	897272	759.773333331923	572497
435	960495	812.773333331823	612697
435	1023718	865.773333331723	652897
435	1086739	918.773333331623	693097
435	1149962	971.773333331523	733297
436	10235	9.959999999989	7879
436	76892	70.776666666556	50099
436	139913	123.776666666456	90299
436	203136	176.776666666356	130499
436	266157	229.776666666256	170699
436	329380	282.776666666156	210899
436	392603	335.776666666056	251099
436	455624	388.776666665956	291299
436	518847	441.776666665856	331499
436	581868	494.776666665756	371699
436	645091	547.776666665656	411899
436	708314	600.776666665556	452099
436	771335	653.776666665456	492299
436	834558	706.776666665356	532499
436	897579	759.776666665256	572699
436	960802	812.776666665156	612899
436	1024025	865.776666665056	653099
436	1087046	918.776666664956	693299
436	1150269	971.776666664856	733499
437	10792	10.189999999989	8113
437	77199	70.779999999889	50301
437	140220	123.779999999789	90501
437	203443	176.779999999689	130701
437	266464	229.779999999589	170901
437	329687	282.779999999489	211101
437	392910	335.779999999389	251301
437	455931	388.779999999289	291501
437	519154	441.779999999189	331701
437	582175	494.779999999089	371901
437	645398	547.779999998989	412101
437	708621	600.779999998889	452301
437	771642	653.779999998789	492501
437	834865	706.779999998689	532701
437	897886	759.779999998589	572901
437	961109	812.779999998489	613101
437	1024332	865.779999998389	653301
437	1087353	918.779999998289	693501
437	1150576	971.779999998189	733701
438	11156	10.416666666655	8353
438	77506	70.783333333222	50503
438	140527	123.783333333122	90703
438	203750	176.783333333022	130903
438	266771	229.783333332922	171103
438	329994	282.783333332822	211303
438	393217	335.783333332722	251503
438	456238	388.783333332622	291703
438	519461	441.783333332522	331903
438	582482	494.783333332422	372103
438	645705	547.783333332322	412303
438	708928	600.783333332222	452503
438	771949	653.783333332122	492703
438	835172	706.783333332022	532903
438	898193	759.783333331922	573103
438	961416	812.783333331822	613303
438	1024639	865.783333331722	653503
438	1087660	918.783333331622	693703
438	1150883	971.783333331522	733903
439	11550	10.639999999988	8613
439	77813	70.786666666555	50705
439	140834	123.786666666455	90905
439	204057	176.786666666355	131105
439	267078	229.786666666255	171305
439	330301	282.786666666155	211505
439	393524	335.786666666055	251705
439	456545	388.786666665955	291905
439	519768	441.786666665855	332105
439	582789	494.786666665755	372305
439	646012	547.786666665655	412505
439	709235	600.786666665555	452705
439	772256	653.786666665455	492905
439	835479	706.786666665355	533105
439	898500	759.786666665255	573305
439	961723	812.786666665155	613505
439	1024946	865.786666665055	653705
439	1087967	918.786666664955	693905
439	1151190	971.786666664855	734105
440	11932	10.859999999988	8865
440	78120	70.789999999888	50907
440	141141	123.789999999788	91107
440	204364	176.789999999688	131307
440	267385	229.789999999588	171507
440	330608	282.789999999488	211707
440	393831	335.789999999388	251907
440	456852	388.789999999288	292107