version 2
run General-0-20220517-15:41:26-19000
attr configname General
attr datetime 20220517-15:41:26
attr experiment General
attr inifile omnetpp.ini
attr iterationvars $traffic=1
attr iterationvars2 "$traffic=1, $repetition=0"
attr measurement $traffic=1
attr network BMACExampleNetwork
attr processid 19000
attr repetition 0
attr replication #0
attr resultdir results
attr runnumber 0
attr seedset 0
attr traffic 1

vector 204  BMACExampleNetwork.node[1].nic.mac  ""  ETV
vector 205  BMACExampleNetwork.node[2].nic.mac  ""  ETV
vector 206  BMACExampleNetwork.node[3].nic.mac  ""  ETV
vector 207  BMACExampleNetwork.node[4].nic.mac  ""  ETV
vector 208  BMACExampleNetwork.node[5].nic.mac  ""  ETV
vector 209  BMACExampleNetwork.node[6].nic.mac  ""  ETV
vector 210  BMACExampleNetwork.node[7].nic.mac  ""  ETV
vector 211  BMACExampleNetwork.node[8].nic.mac  ""  ETV
vector 212  BMACExampleNetwork.node[9].nic.mac  ""  ETV
vector 213  BMACExampleNetwork.node[10].nic.mac  ""  ETV
vector 214  BMACExampleNetwork.node[11].nic.mac  ""  ETV
vector 215  BMACExampleNetwork.node[12].nic.mac  ""  ETV
vector 216  BMACExampleNetwork.node[13].nic.mac  ""  ETV
vector 217  BMACExampleNetwork.node[14].nic.mac  ""  ETV
vector 218  BMACExampleNetwork.node[15].nic.mac  ""  ETV
vector 219  BMACExampleNetwork.node[16].nic.mac  ""  ETV
vector 220  BMACExampleNetwork.node[17].nic.mac  ""  ETV
vector 221  BMACExampleNetwork.node[18].nic.mac  ""  ETV
vector 222  BMACExampleNetwork.node[19].nic.mac  ""  ETV
vector 223  BMACExampleNetwork.node[20].nic.mac  ""  ETV
vector 224  BMACExampleNetwork.node[21].nic.mac  ""  ETV
vector 225  BMACExampleNetwork.node[22].nic.mac  ""  ETV
vector 226  BMACExampleNetwork.node[23].nic.mac  ""  ETV
vector 227  BMACExampleNetwork.node[24].nic.mac  ""  ETV
vector 228  BMACExampleNetwork.node[25].nic.mac  ""  ETV
vector 229  BMACExampleNetwork.node[26].nic.mac  ""  ETV
vector 230  BMACExampleNetwork.node[27].nic.mac  ""  ETV
vector 231  BMACExampleNetwork.node[28].nic.mac  ""  ETV
vector 232  BMACExampleNetwork.node[29].nic.mac  ""  ETV
vector 233  BMACExampleNetwork.node[30].nic.mac  ""  ETV
vector 234  BMACExampleNetwork.node[31].nic.mac  ""  ETV
vector 235  BMACExampleNetwork.node[32].nic.mac  ""  ETV
vector 236  BMACExampleNetwork.node[33].nic.mac  ""  ETV
vector 237  BMACExampleNetwork.node[34].nic.mac  ""  ETV
vector 238  BMACExampleNetwork.node[35].nic.mac  ""  ETV
vector 239  BMACExampleNetwork.node[36].nic.mac  ""  ETV
vector 240  BMACExampleNetwork.node[37].nic.mac  ""  ETV
vector 241  BMACExampleNetwork.node[38].nic.mac  ""  ETV
vector 242  BMACExampleNetwork.node[39].nic.mac  ""  ETV
vector 243  BMACExampleNetwork.node[40].nic.mac  ""  ETV
vector 244  BMACExampleNetwork.node[41].nic.mac  ""  ETV
vector 245  BMACExampleNetwork.node[42].nic.mac  ""  ETV
vector 246  BMACExampleNetwork.node[43].nic.mac  ""  ETV
vector 247  BMACExampleNetwork.node[44].nic.mac  ""  ETV
vector 248  BMACExampleNetwork.node[45].nic.mac  ""  ETV
vector 249  BMACExampleNetwork.node[46].nic.mac  ""  ETV
vector 250  BMACExampleNetwork.node[47].nic.mac  ""  ETV
vector 251  BMACExampleNetwork.node[48].nic.mac  ""  ETV
vector 252  BMACExampleNetwork.node[49].nic.mac  ""  ETV
vector 253  BMACExampleNetwork.node[50].nic.mac  ""  ETV
204	109	0.673333333333	715
204	18262	56.41999999995	11835
204	34783	107.9199999999	21935
204	51304	159.41999999985	32035
204	67927	210.9199999998	42135
204	84448	262.41999999975	52235
204	100969	313.9199999997	62335
204	117592	365.41999999965	72435
204	134113	416.9199999996	82535
204	150634	468.41999999955	92635
204	167155	519.9199999995	102735
204	183778	571.41999999945	112835
204	200299	622.9199999994	122935
204	216820	674.41999999935	133035
204	233443	725.9199999993	143135
204	249964	777.41999999925	153235
204	266485	828.9199999992	163335
204	283108	880.41999999915	173435
204	299629	931.9199999991	183535
204	316150	983.41999999905	193635
205	266	0.843333333333	817
205	18419	56.423333333283	11937
205	34940	107.923333333233	22037
205	51461	159.423333333183	32137
205	68084	210.923333333133	42237
205	84605	262.423333333083	52337
205	101126	313.923333333033	62437
205	117749	365.423333332983	72537
205	134270	416.923333332933	82637
205	150791	468.423333332883	92737
205	167312	519.923333332833	102837
205	183935	571.423333332783	112937
205	200456	622.923333332733	123037
205	216977	674.423333332683	133137
205	233600	725.923333332633	143237
205	250121	777.423333332583	153337
205	266642	828.923333332533	163437
205	283265	880.423333332483	173537
205	299786	931.923333332433	183637
205	316307	983.423333332383	193737
206	423	1.009999999999	919
206	18576	56.426666666616	12039
206	35097	107.926666666566	22139
206	51618	159.426666666516	32239
206	68241	210.926666666466	42339
206	84762	262.426666666416	52439
206	101283	313.926666666366	62539
206	117906	365.426666666316	72639
206	134427	416.926666666266	82739
206	150948	468.426666666216	92839
206	167469	519.926666666166	102939
206	184092	571.426666666116	113039
206	200613	622.926666666066	123139
206	217134	674.426666666016	133239
206	233757	725.926666665966	143339
206	250278	777.426666665916	153439
206	266799	828.926666665866	163539
206	283422	880.426666665816	173639
206	299943	931.926666665766	183739
206	316464	983.426666665716	193839
207	580	1.173333333332	1021
207	18733	56.429999999949	12141
207	35254	107.929999999899	22241
207	51775	159.429999999849	32341
207	68398	210.929999999799	42441
207	84919	262.429999999749	52541
207	101440	313.929999999699	62641
207	118063	365.429999999649	72741
207	134584	416.929999999599	82841
207	151105	468.429999999549	92941
207	167626	519.929999999499	103041
207	184249	571.429999999449	113141
207	200770	622.929999999399	123241
207	217291	674.429999999349	133341
207	233914	725.929999999299	143441
207	250435	777.429999999249	153541
207	266956	828.929999999199	163641
207	283579	880.429999999149	173741
207	300100	931.929999999099	183841
207	316621	983.429999999049	193941
208	737	1.333333333332	1123
208	18890	56.433333333282	12243
208	35411	107.933333333232	22343
208	51932	159.433333333182	32443
208	68555	210.933333333132	42543
208	85076	262.433333333082	52643
208	101597	313.933333333032	62743
208	118220	365.433333332982	72843
208	134741	416.933333332932	82943
208	151262	468.433333332882	93043
208	167783	519.933333332832	103143
208	184406	571.433333332782	113243
208	200927	622.933333332732	123343
208	217448	674.433333332682	133443
208	234071	725.933333332632	143543
208	250592	777.433333332582	153643
208	267113	828.933333332532	163743
208	283736	880.433333332482	173843
208	300257	931.933333332432	183943
208	316778	983.433333332382	194043
209	894	1.489999999998	1225
209	19047	56.436666666615	12345
209	35568	107.936666666565	22445
209	52089	159.436666666515	32545
209	68712	210.936666666465	42645
209	85233	262.436666666415	52745
209	101754	313.936666666365	62845
209	118377	365.436666666315	72945
209	134898	416.936666666265	83045
209	151419	468.436666666215	93145
209	167940	519.936666666165	103245
209	184563	571.436666666115	113345
209	201084	622.936666666065	123445
209	217605	674.436666666015	133545
209	234228	725.936666665965	143645
209	250749	777.436666665915	153745
209	267270	828.936666665865	163845
209	283893	880.436666665815	173945
209	300414	931.936666665765	184045
209	316935	983.436666665715	194145
210	1051	1.643333333331	1327
210	19204	56.439999999948	12447
210	35725	107.939999999898	22547
210	52246	159.439999999848	32647
210	68869	210.939999999798	42747
210	85390	262.439999999748	52847
210	101911	313.939999999698	62947
210	118534	365.439999999648	73047
210	135055	416.939999999598	83147
210	151576	468.439999999548	93247
210	168097	519.939999999498	103347
210	184720	571.439999999448	113447
210	201241	622.939999999398	123547
210	217762	674.439999999348	133647
210	234385	725.939999999298	143747
210	250906	777.439999999248	153847
210	267427	828.939999999198	163947
210	284050	880.439999999148	174047
210	300571	931.939999999098	184147
210	317092	983.439999999048	194247
211	1208	1.793333333331	1429
211	19361	56.443333333281	12549
211	35882	107.943333333231	22649
211	52403	159.443333333181	32749
211	69026	210.943333333131	42849
211	85547	262.443333333081	52949
211	102068	313.943333333031	63049
211	118691	365.443333332981	73149
211	135212	416.943333332931	83249
211	151733	468.443333332881	93349
211	168254	519.943333332831	103449
211	184877	571.443333332781	113549
211	201398	622.943333332731	123649
211	217919	674.443333332681	133749
211	234542	725.943333332631	143849
211	251063	777.443333332581	153949
211	267584	828.943333332531	164049
211	284207	880.443333332481	174149
211	300728	931.943333332431	184249
211	317249	983.443333332381	194349
212	1365	1.939999999997	1531
212	19518	56.446666666614	12651
212	36039	107.946666666564	22751
212	52560	159.446666666514	32851
212	69183	210.946666666464	42951
212	85704	262.446666666414	53051
212	102225	313.946666666364	63151
212	118848	365.446666666314	73251
212	135369	416.946666666264	83351
212	151890	468.446666666214	93451
212	168411	519.946666666164	103551
212	185034	571.446666666114	113651
212	201555	622.946666666064	123751
212	218076	674.446666666014	133851
212	234699	725.946666665964	143951
212	251220	777.446666665914	154051
212	267741	828.946666665864	164151
212	284364	880.446666665814	174251
212	300885	931.946666665764	184351
212	317406	983.446666665714	194451
213	1522	2.08333333333	1633
213	19675	56.449999999947	12753
213	36196	107.949999999897	22853
213	52717	159.449999999847	32953
213	69340	210.949999999797	43053
213	85861	262.449999999747	53153
213	102382	313.949999999697	63253
213	119005	365.449999999647	73353
213	135526	416.949999999597	83453
213	152047	468.449999999547	93553
213	168568	519.949999999497	103653
213	185191	571.449999999447	113753
213	201712	622.949999999397	123853
213	218233	674.449999999347	133953
213	234856	725.949999999297	144053
213	251377	777.449999999247	154153
213	267898	828.949999999197	164253
213	284521	880.449999999147	174353
213	301042	931.949999999097	184453
213	317563	983.449999999047	194553
214	1679	2.22333333333	1735
214	19832	56.45333333328	12855
214	36353	107.95333333323	22955
214	52874	159.45333333318	33055
214	69497	210.95333333313	43155
214	86018	262.45333333308	53255
214	102539	313.95333333303	63355
214	119162	365.45333333298	73455
214	135683	416.95333333293	83555
214	152204	468.45333333288	93655
214	168725	519.95333333283	103755
214	185348	571.45333333278	113855
214	201869	622.95333333273	123955
214	218390	674.45333333268	134055
214	235013	725.95333333263	144155
214	251534	777.45333333258	154255
214	268055	828.95333333253	164355
214	284678	880.45333333248	174455
214	301199	931.95333333243	184555
214	317720	983.45333333238	194655
215	1836	2.359999999996	1837
215	19989	56.456666666613	12957
215	36510	107.956666666563	23057
215	53031	159.456666666513	33157
215	69654	210.956666666463	43257
215	86175	262.456666666413	53357
215	102696	313.956666666363	63457
215	119319	365.456666666313	73557
215	135840	416.956666666263	83657
215	152361	468.456666666213	93757
215	168882	519.956666666163	103857
215	185505	571.456666666113	113957
215	202026	622.956666666063	124057
215	218547	674.456666666013	134157
215	235170	725.956666665963	144257
215	251691	777.456666665913	154357
215	268212	828.956666665863	164457
215	284835	880.456666665813	174557
215	301356	931.956666665763	184657
215	317877	983.456666665713	194757
216	1993	2.493333333329	1939
216	20146	56.459999999946	13059
216	36667	107.959999999896	23159
216	53188	159.459999999846	33259
216	69811	210.959999999796	43359
216	86332	262.459999999746	53459
216	102853	313.959999999696	63559
216	119476	365.459999999646	73659
216	135997	416.959999999596	83759
216	152518	468.459999999546	93859
216	169039	519.959999999496	103959
216	185662	571.459999999446	114059
216	202183	622.959999999396	124159
216	218704	674.459999999346	134259
216	235327	725.959999999296	144359
216	251848	777.459999999246	154459
216	268369	828.959999999196	164559
216	284992	880.459999999146	174659
216	301513	931.959999999096	184759
216	318034	983.459999999046	194859
217	2150	2.623333333329	2041
217	20303	56.463333333279	13161
217	36824	107.963333333229	23261
217	53345	159.463333333179	33361
217	69968	210.963333333129	43461
217	86489	262.463333333079	53561
217	103010	313.963333333029	63661
217	119633	365.463333332979	73761
217	136154	416.963333332929	83861
217	152675	468.463333332879	93961
217	169196	519.963333332829	104061
217	185819	571.463333332779	114161
217	202340	622.963333332729	124261
217	218861	674.463333332679	134361
217	235484	725.963333332629	144461
217	252005	777.463333332579	154561
217	268526	828.963333332529	164661
217	285149	880.463333332479	174761
217	301670	931.963333332429	184861
217	318191	983.463333332379	194961
218	2307	2.749999999995	2143
218	20460	56.466666666612	13263
218	36981	107.966666666562	23363
218	53502	159.466666666512	33463
218	70125	210.966666666462	43563
218	86646	262.466666666412	53663
218	103167	313.966666666362	63763
218	119790	365.466666666312	73863
218	136311	416.966666666262	83963
218	152832	468.466666666212	94063
218	169353	519.966666666162	104163
218	185976	571.466666666112	114263
218	202497	622.966666666062	124363
218	219018	674.466666666012	134463
218	235641	725.966666665962	144563
218	252162	777.466666665912	154663
218	268683	828.966666665862	164763
218	285306	880.466666665812	174863
218	301827	931.966666665762	184963
218	318348	983.466666665712	195063
219	2464	2.873333333328	2245
219	20617	56.469999999945	13365
219	37138	107.969999999895	23465
219	53659	159.469999999845	33565
219	70282	210.969999999795	43665
219	86803	262.469999999745	53765
219	103324	313.969999999695	63865
219	119947	365.469999999645	73965
219	136468	416.969999999595	84065
219	152989	468.469999999545	94165
219	169510	519.969999999495	104265
219	186133	571.469999999445	114365
219	202654	622.969999999395	124465
219	219175	674.469999999345	134565
219	235798	725.969999999295	144665
219	252319	777.469999999245	154765
219	268840	828.969999999195	164865
219	285463	880.469999999145	174965
219	301984	931.969999999095	185065
219	318505	983.469999999045	195165
220	2621	2.993333333328	2347
220	20774	56.473333333278	13467
220	37295	107.973333333228	23567
220	53816	159.473333333178	33667
220	70439	210.973333333128	43767
220	86960	262.473333333078	53867
220	103481	313.973333333028	63967
220	120104	365.473333332978	74067
220	136625	416.973333332928	84167
220	153146	468.473333332878	94267
220	169667	519.973333332828	104367
220	186290	571.473333332778	114467
220	202811	622.973333332728	124567
220	219332	674.473333332678	134667
220	235955	725.973333332628	144767
220	252476	777.473333332578	154867
220	268997	828.973333332528	164967
220	285620	880.473333332478	175067
220	302141	931.973333332428	185167
220	318662	983.473333332378	195267
221	2778	3.109999999994	2449
221	20931	56.476666666611	13569
221	37452	107.976666666561	23669
221	53973	159.476666666511	33769
221	70596	210.976666666461	43869
221	87117	262.476666666411	53969
221	103638	313.976666666361	64069
221	120261	365.476666666311	74169
221	136782	416.976666666261	84269
221	153303	468.476666666211	94369
221	169824	519.976666666161	104469
221	186447	571.476666666111	114569
221	202968	622.976666666061	124669
221	219489	674.476666666011	134769
221	236112	725.976666665961	144869
221	252633	777.476666665911	154969
221	269154	828.976666665861	165069
221	285777	880.476666665811	175169
221	302298	931.976666665761	185269
221	318819	983.476666665711	195369
222	2935	3.223333333327	2551
222	21088	56.479999999944	13671
222	37609	107.979999999894	23771
222	54130	159.479999999844	33871
222	70753	210.979999999794	43971
222	87274	262.479999999744	54071
222	103795	313.979999999694	64171
222	120418	365.479999999644	74271
222	136939	416.979999999594	84371
222	153460	468.479999999544	94471
222	169981	519.979999999494	104571
222	186604	571.479999999444	114671
222	203125	622.979999999394	124771
222	219646	674.479999999344	134871
222	236269	725.979999999294	144971
222	252790	777.479999999244	155071
222	269311	828.979999999194	165171
222	285934	880.479999999144	175271
222	302455	931.979999999094	185371
222	318976	983.479999999044	195471
223	3092	3.333333333327	2653
223	21245	56.483333333277	13773
223	37766	107.983333333227	23873
223	54287	159.483333333177	33973
223	70910	210.983333333127	44073
223	87431	262.483333333077	54173
223	103952	313.983333333027	64273
223	120575	365.483333332977	74373
223	137096	416.983333332927	84473
223	153617	468.483333332877	94573
223	170138	519.983333332827	104673
223	186761	571.483333332777	114773
223	203282	622.983333332727	124873
223	219803	674.483333332677	134973
223	236426	725.983333332627	145073
223	252947	777.483333332577	155173
223	269468	828.983333332527	165273
223	286091	880.483333332477	175373
223	302612	931.983333332427	185473
223	319133	983.483333332377	195573
224	3249	3.439999999993	2755
224	21402	56.48666666661	13875
224	37923	107.98666666656	23975
224	54444	159.48666666651	34075
224	71067	210.98666666646	44175
224	87588	262.48666666641	54275
224	104109	313.98666666636	64375
224	120732	365.48666666631	74475
224	137253	416.98666666626	84575
224	153774	468.48666666621	94675
224	170295	519.98666666616	104775
224	186918	571.48666666611	114875
224	203439	622.98666666606	124975
224	219960	674.48666666601	135075
224	236583	725.98666666596	145175
224	253104	777.48666666591	155275
224	269625	828.98666666586	165375
224	286248	880.48666666581	175475
224	302769	931.98666666576	185575
224	319290	983.48666666571	195675
225	3406	3.543333333326	2857
225	21559	56.489999999943	13977
225	38080	107.989999999893	24077
225	54601	159.489999999843	34177
225	71224	210.989999999793	44277
225	87745	262.489999999743	54377
225	104266	313.989999999693	64477
225	120889	365.489999999643	74577
225	137410	416.989999999593	84677
225	153931	468.489999999543	94777
225	170452	519.989999999493	104877
225	187075	571.489999999443	114977
225	203596	622.989999999393	125077
225	220117	674.489999999343	135177
225	236740	725.989999999293	145277
225	253261	777.489999999243	155377
225	269782	828.989999999193	165477
225	286405	880.489999999143	175577
225	302926	931.989999999093	185677
225	319447	983.489999999043	195777
226	3563	3.643333333326	2959
226	21716	56.493333333276	14079
226	38237	107.993333333226	24179
226	54758	159.493333333176	34279
226	71381	210.993333333126	44379
226	87902	262.493333333076	54479
226	104423	313.993333333026	64579
226	121046	365.493333332976	74679
226	137567	416.993333332926	84779
226	154088	468.493333332876	94879
226	170609	519.993333332826	104979
226	187232	571.493333332776	115079
226	203753	622.993333332726	125179
226	220274	674.493333332676	135279
226	236897	725.993333332626	145379
226	253418	777.493333332576	155479
226	269939	828.993333332526	165579
226	286562	880.493333332476	175679
226	303083	931.993333332426	185779
226	319604	983.493333332376	195879
227	3720	3.739999999992	3061
227	21873	56.496666666609	14181
227	38394	107.996666666559	24281
227	54915	159.496666666509	34381
227	71538	210.996666666459	44481
227	88059	262.496666666409	54581
227	104580	313.996666666359	64681
227	121203	365.496666666309	74781
227	137724	416.996666666259	84881
227	154245	468.496666666209	94981
227	170766	519.996666666159	105081
227	187389	571.496666666109	115181
227	203910	622.996666666059	125281
227	220431	674.496666666009	135381
227	237054	725.996666665959	145481
227	253575	777.496666665909	155581
227	270096	828.996666665859	165681
227	286719	880.496666665809	175781
227	303240	931.996666665759	185881
227	319761	983.496666665709	195981
228	3877	3.833333333325	3163
228	22030	56.499999999942	14283
228	38551	107.999999999892	24383
228	55072	159.499999999842	34483
228	71695	210.999999999792	44583
228	88216	262.499999999742	54683
228	104737	313.999999999692	64783
228	121360	365.499999999642	74883
228	137881	416.999999999592	84983
228	154402	468.499999999542	95083
228	170923	519.999999999492	105183
228	187546	571.499999999442	115283
228	204067	622.999999999392	125383
228	220588	674.499999999342	135483
228	237211	725.999999999292	145583
228	253732	777.499999999242	155683
228	270253	828.999999999192	165783
228	286876	880.499999999142	175883
228	303397	931.999999999092	185983
228	319918	983.499999999042	196083
229	4034	3.923333333325	3265
229	22187	56.503333333275	14385
229	38708	108.003333333225	24485
229	55229	159.503333333175	34585
229	71852	211.003333333125	44685
229	88373	262.503333333075	54785
229	104894	314.003333333025	64885
229	121517	365.503333332975	74985
229	138038	417.003333332925	85085
229	154559	468.503333332875	95185
229	171182	520.003333332825	105285
229	187703	571.503333332775	115385
229	204224	623.003333332725	125485
229	220745	674.503333332675	135585
229	237368	726.003333332625	145685
229	253889	777.503333332575	155785
229	270410	829.003333332525	165885
229	287033	880.503333332475	175985
229	303554	932.003333332425	186085
229	320075	983.503333332375	196185
230	4191	4.009999999991	3367
230	22344	56.506666666608	14487
230	38865	108.006666666558	24587
230	55386	159.506666666508	34687
230	72009	211.006666666458	44787
230	88530	262.506666666408	54887
230	105051	314.006666666358	64987
230	121674	365.506666666308	75087
230	138195	417.006666666258	85187
230	154716	468.506666666208	95287
230	171339	520.006666666158	105387
230	187860	571.506666666108	115487
230	204381	623.006666666058	125587
230	220902	674.506666666008	135687
230	237525	726.006666665958	145787
230	254046	777.506666665908	155887
230	270567	829.006666665858	165987
230	287190	880.506666665808	176087
230	303711	932.006666665758	186187
230	320232	983.506666665708	196287
231	4348	4.093333333324	3469
231	22501	56.509999999941	14589
231	39022	108.009999999891	24689
231	55543	159.509999999841	34789
231	72166	211.009999999791	44889
231	88687	262.509999999741	54989
231	105208	314.009999999691	65089
231	121831	365.509999999641	75189
231	138352	417.009999999591	85289
231	154873	468.509999999541	95389
231	171496	520.009999999491	105489
231	188017	571.509999999441	115589
231	204538	623.009999999391	125689
231	221059	674.509999999341	135789
231	237682	726.009999999291	145889
231	254203	777.509999999241	155989
231	270724	829.009999999191	166089
231	287347	880.509999999141	176189
231	303868	932.009999999091	186289
231	320389	983.509999999041	196389
232	4505	4.173333333324	3571
232	22658	56.513333333274	14691
232	39179	108.013333333224	24791
232	55700	159.513333333174	34891
232	72323	211.013333333124	44991
232	88844	262.513333333074	55091
232	105365	314.013333333024	65191
232	121988	365.513333332974	75291
232	138509	417.013333332924	85391
232	155030	468.513333332874	95491
232	171653	520.013333332824	105591
232	188174	571.513333332774	115691
232	204695	623.013333332724	125791
232	221216	674.513333332674	135891
232	237839	726.013333332624	145991
232	254360	777.513333332574	156091
232	270881	829.013333332524	166191
232	287504	880.513333332474	176291
232	304025	932.013333332424	186391
232	320546	983.513333332374	196491
233	4662	4.24999999999	3673
233	22815	56.516666666607	14793
233	39336	108.016666666557	24893
233	55857	159.516666666507	34993
233	72480	211.016666666457	45093
233	89001	262.516666666407	55193
233	105522	314.016666666357	65293
233	122145	365.516666666307	75393
233	138666	417.016666666257	85493
233	155187	468.516666666207	95593
233	171810	520.016666666157	105693
233	188331	571.516666666107	115793
233	204852	623.016666666057	125893
233	221373	674.516666666007	135993
233	237996	726.016666665957	146093
233	254517	777.516666665907	156193
233	271038	829.016666665857	166293
233	287661	880.516666665807	176393
233	304182	932.016666665757	186493
233	320703	983.516666665707	196593
234	4819	4.323333333323	3775
234	22972	56.51999999994	14895
234	39493	108.01999999989	24995
234	56014	159.51999999984	35095
234	72637	211.01999999979	45195
234	89158	262.51999999974	55295
234	105679	314.01999999969	65395
234	122302	365.51999999964	75495
234	138823	417.01999999959	85595
234	155344	468.51999999954	95695
234	171967	520.01999999949	105795
234	188488	571.51999999944	115895
234	205009	623.01999999939	125995
234	221530	674.51999999934	136095
234	238153	726.01999999929	146195
234	254674	777.51999999924	156295
234	271195	829.01999999919	166395
234	287818	880.51999999914	176495
234	304339	932.01999999909	186595
234	320860	983.51999999904	196695
235	4976	4.393333333323	3877
235	23129	56.523333333273	14997
235	39650	108.023333333223	25097
235	56171	159.523333333173	35197
235	72794	211.023333333123	45297
235	89315	262.523333333073	55397
235	105836	314.023333333023	65497
235	122459	365.523333332973	75597
235	138980	417.023333332923	85697
235	155501	468.523333332873	95797
235	172124	520.023333332823	105897
235	188645	571.523333332773	115997
235	205166	623.023333332723	126097
235	221687	674.523333332673	136197
235	238310	726.023333332623	146297
235	254831	777.523333332573	156397
235	271352	829.023333332523	166497
235	287975	880.523333332473	176597
235	304496	932.023333332423	186697
235	321017	983.523333332373	196797
236	5133	4.459999999989	3979
236	23286	56.526666666606	15099
236	39807	108.026666666556	25199
236	56328	159.526666666506	35299
236	72951	211.026666666456	45399
236	89472	262.526666666406	55499
236	105993	314.026666666356	65599
236	122616	365.526666666306	75699
236	139137	417.026666666256	85799
236	155658	468.526666666206	95899
236	172281	520.026666666156	105999
236	188802	571.526666666106	116099
236	205323	623.026666666056	126199
236	221844	674.526666666006	136299
236	238467	726.026666665956	146399
236	254988	777.526666665906	156499
236	271509	829.026666665856	166599
236	288132	880.526666665806	176699
236	304653	932.026666665756	186799
236	321174	983.526666665706	196899
237	5290	4.523333333322	4081
237	23443	56.529999999939	15201
237	39964	108.029999999889	25301
237	56485	159.529999999839	35401
237	73108	211.029999999789	45501
237	89629	262.529999999739	55601
237	106150	314.029999999689	65701
237	122773	365.529999999639	75801
237	139294	417.029999999589	85901
237	155815	468.529999999539	96001
237	172438	520.029999999489	106101
237	188959	571.529999999439	116201
237	205480	623.029999999389	126301
237	222001	674.529999999339	136401
237	238624	726.029999999289	146501
237	255145	777.529999999239	156601
237	271666	829.029999999189	166701
237	288289	880.529999999139	176801
237	304810	932.029999999089	186901
237	321331	983.529999999039	197001
238	5447	4.583333333322	4183
238	23600	56.533333333272	15303
238	40121	108.033333333222	25403
238	56642	159.533333333172	35503
238	73265	211.033333333122	45603
238	89786	262.533333333072	55703
238	106307	314.033333333022	65803
238	122930	365.533333332972	75903
238	139451	417.033333332922	86003
238	155972	468.533333332872	96103
238	172595	520.033333332822	106203
238	189116	571.533333332772	116303
238	205637	623.033333332722	126403
238	222158	674.533333332672	136503
238	238781	726.033333332622	146603
238	255302	777.533333332572	156703
238	271823	829.033333332522	166803
238	288446	880.533333332472	176903
238	304967	932.033333332422	187003
238	321488	983.533333332372	197103
239	5604	4.639999999988	4285
239	23757	56.536666666605	15405
239	40278	108.036666666555	25505
239	56799	159.536666666505	35605
239	73422	211.036666666455	45705
239	89943	262.536666666405	55805
239	106464	314.036666666355	65905
239	123087	365.536666666305	76005
239	139608	417.036666666255	86105
239	156129	468.536666666205	96205
239	172752	520.036666666155	106305
239	189273	571.536666666105	116405
239	205794	623.036666666055	126505
239	222315	674.536666666005	136605
239	238938	726.036666665955	146705
239	255459	777.536666665905	156805
239	271980	829.036666665855	166905
239	288603	880.536666665805	177005
239	305124	932.036666665755	187105
239	321645	983.536666665705	197205
240	5761	4.693333333321	4387
240	23914	56.539999999938	15507
240	40435	108.039999999888	25607
240	56956	159.539999999838	35707
240	73579	211.039999999788	45807
240	90100	262.539999999738	55907
240	106621	314.039999999688	66007
240	123244	365.539999999638	76107
240	139765	417.039999999588	86207
240	156286	468.539999999538	96307
240	172909	520.039999999488	106407
240	189430	571.539999999438	116507
240	205951	623.039999999388	126607
240	222472	674.539999999338	136707
240	239095	726.039999999288	146807
240	255616	777.539999999238	156907
240	272137	829.039999999188	167007
240	288760	880.539999999138	177107
240	305281	932.039999999088	187207
240	321802	983.539999999038	197307
241	5918	4.743333333321	4489
241	24071	56.543333333271	15609
241	40592	108.043333333221	25709
241	57113	159.543333333171	35809
241	73736	211.043333333121	45909
241	90257	262.543333333071	56009
241	106778	314.043333333021	66109
241	123401	365.543333332971	76209
241	139922	417.043333332921	86309
241	156443	468.543333332871	96409
241	173066	520.043333332821	106509
241	189587	571.543333332771	116609
241	206108	623.043333332721	126709
241	222629	674.543333332671	136809
241	239252	726.043333332621	146909
241	255773	777.543333332571	157009
241	272294	829.043333332521	167109
241	288917	880.543333332471	177209
241	305438	932.043333332421	187309
241	321959	983.543333332371	197409
242	6075	4.789999999987	4591
242	24228	56.546666666604	15711
242	40749	108.046666666554	25811
242	57270	159.546666666504	35911
242	73893	211.046666666454	46011
242	90414	262.546666666404	56111
242	106935	314.046666666354	66211
242	123558	365.546666666304	76311
242	140079	417.046666666254	86411
242	156600	468.546666666204	96511
242	173223	520.046666666154	106611
242	189744	571.546666666104	116711
242	206265	623.046666666054	126811
242	222786	674.546666666004	136911
242	239409	726.046666665954	147011
242	255930	777.546666665904	157111
242	272451	829.046666665854	167211
242	289074	880.546666665804	177311
242	305595	932.046666665754	187411
242	322116	983.546666665704	197511
243	6232	4.83333333332	4693
243	24385	56.549999999937	15813
243	40906	108.049999999887	25913
243	57427	159.549999999837	36013
243	74050	211.049999999787	46113
243	90571	262.549999999737	56213
243	107092	314.049999999687	66313
243	123715	365.549999999637	76413
243	140236	417.049999999587	86513
243	156757	468.549999999537	96613