version 2
run General-0-20220517-15:55:51-20532
attr configname General
attr datetime 20220517-15:55:51
attr experiment General
attr inifile omnetpp.ini
attr iterationvars $traffic=1
attr iterationvars2 "$traffic=1, $repetition=0"
attr measurement $traffic=1
attr network BMACExampleNetwork
attr processid 20532
attr repetition 0
attr replication #0
attr resultdir results
attr runnumber 0
attr seedset 0
attr traffic 1

vector 44  BMACExampleNetwork.node[1].nic.mac  ""  ETV
vector 45  BMACExampleNetwork.node[2].nic.mac  ""  ETV
vector 46  BMACExampleNetwork.node[3].nic.mac  ""  ETV
vector 47  BMACExampleNetwork.node[4].nic.mac  ""  ETV
vector 48  BMACExampleNetwork.node[5].nic.mac  ""  ETV
vector 49  BMACExampleNetwork.node[6].nic.mac  ""  ETV
vector 50  BMACExampleNetwork.node[7].nic.mac  ""  ETV
vector 51  BMACExampleNetwork.node[8].nic.mac  ""  ETV
vector 52  BMACExampleNetwork.node[9].nic.mac  ""  ETV
vector 53  BMACExampleNetwork.node[10].nic.mac  ""  ETV
44	29	0.54	167
44	1280	51.01999999999	1106
44	2201	101.31999999998	1526
44	3122	151.61999999997	1946
44	4043	201.91999999996	2366
44	4964	252.21999999995	2786
44	5885	302.51999999994	3206
44	6806	352.81999999993	3626
44	7727	403.11999999992	4046
44	8648	453.41999999991	4466
44	9569	503.7199999999	4886
44	10490	554.01999999989	5306
44	11411	604.31999999988	5726
44	12332	654.61999999987	6146
44	13253	704.91999999986	6566
44	14196	755.21999999985	6986
44	15117	805.51999999984	7406
44	16038	855.81999999983	7826
44	16959	906.11999999982	8246
44	17880	956.41999999981	8666
45	66	0.576666666666	213
45	1317	51.023333333323	1128
45	2238	101.323333333313	1548
45	3159	151.623333333303	1968
45	4080	201.923333333293	2388
45	5001	252.223333333283	2808
45	5922	302.523333333273	3228
45	6843	352.823333333263	3648
45	7764	403.123333333253	4068
45	8685	453.423333333243	4488
45	9606	503.723333333233	4908
45	10527	554.023333333223	5328
45	11448	604.323333333213	5748
45	12369	654.623333333203	6168
45	13290	704.923333333193	6588
45	14233	755.223333333183	7008
45	15154	805.523333333173	7428
45	16075	855.823333333163	7848
45	16996	906.123333333153	8268
45	17917	956.423333333143	8688
46	103	0.609999999999	259
46	1354	51.026666666656	1150
46	2275	101.326666666646	1570
46	3196	151.626666666636	1990
46	4117	201.926666666626	2410
46	5038	252.226666666616	2830
46	5959	302.526666666606	3250
46	6880	352.826666666596	3670
46	7801	403.126666666586	4090
46	8722	453.426666666576	4510
46	9643	503.726666666566	4930
46	10564	554.026666666556	5350
46	11485	604.326666666546	5770
46	12406	654.626666666536	6190
46	13327	704.926666666526	6610
46	14270	755.226666666516	7030
46	15191	805.526666666506	7450
46	16112	855.826666666496	7870
46	17033	906.126666666486	8290
46	17954	956.426666666476	8710
47	140	0.639999999999	305
47	1391	51.029999999989	1172
47	2312	101.329999999979	1592
47	3233	151.629999999969	2012
47	4154	201.929999999959	2432
47	5075	252.229999999949	2852
47	5996	302.529999999939	3272
47	6917	352.829999999929	3692
47	7838	403.129999999919	4112
47	8759	453.429999999909	4532
47	9680	503.729999999899	4952
47	10601	554.029999999889	5372
47	11522	604.329999999879	5792
47	12443	654.629999999869	6212
47	13364	704.929999999859	6632
47	14307	755.229999999849	7052
47	15228	805.529999999839	7472
47	16149	855.829999999829	7892
47	17070	906.129999999819	8312
47	17991	956.429999999809	8732
48	177	0.666666666665	351
48	1428	51.033333333322	1194
48	2349	101.333333333312	1614
48	3270	151.633333333302	2034
48	4191	201.933333333292	2454
48	5112	252.233333333282	2874
48	6033	302.533333333272	3294
48	6954	352.833333333262	3714
48	7875	403.133333333252	4134
48	8796	453.433333333242	4554
48	9717	503.733333333232	4974
48	10638	554.033333333222	5394
48	11559	604.333333333212	5814
48	12480	654.633333333202	6234
48	13401	704.933333333192	6654
48	14344	755.233333333182	7074
48	15265	805.533333333172	7494
48	16186	855.833333333162	7914
48	17107	906.133333333152	8334
48	18028	956.433333333142	8754
49	214	0.689999999998	397
49	1465	51.036666666655	1216
49	2386	101.336666666645	1636
49	3307	151.636666666635	2056
49	4228	201.936666666625	2476
49	5149	252.236666666615	2896
49	6070	302.536666666605	3316
49	6991	352.836666666595	3736
49	7912	403.136666666585	4156
49	8833	453.436666666575	4576
49	9754	503.736666666565	4996
49	10675	554.036666666555	5416
49	11596	604.336666666545	5836
49	12517	654.636666666535	6256
49	13438	704.936666666525	6676
49	14381	755.236666666515	7096
49	15302	805.536666666505	7516
49	16223	855.836666666495	7936
49	17144	906.136666666485	8356
49	18065	956.436666666475	8776
50	251	0.709999999998	443
50	1502	51.039999999988	1238
50	2423	101.339999999978	1658
50	3344	151.639999999968	2078
50	4265	201.939999999958	2498
50	5186	252.239999999948	2918
50	6107	302.539999999938	3338
50	7028	352.839999999928	3758
50	7949	403.139999999918	4178
50	8870	453.439999999908	4598
50	9791	503.739999999898	5018
50	10712	554.039999999888	5438
50	11633	604.339999999878	5858
50	12554	654.639999999868	6278
50	13475	704.939999999858	6698
50	14418	755.239999999848	7118
50	15339	805.539999999838	7538
50	16260	855.839999999828	7958
50	17181	906.139999999818	8378
50	18102	956.439999999808	8798
51	288	0.726666666664	489
51	1539	51.043333333321	1260
51	2460	101.343333333311	1680
51	3381	151.643333333301	2100
51	4302	201.943333333291	2520
51	5223	252.243333333281	2940
51	6144	302.543333333271	3360
51	7065	352.843333333261	3780
51	7986	403.143333333251	4200
51	8907	453.443333333241	4620
51	9828	503.743333333231	5040
51	10749	554.043333333221	5460
51	11670	604.343333333211	5880
51	12591	654.643333333201	6300
51	13512	704.943333333191	6720
51	14455	755.243333333181	7140
51	15376	805.543333333171	7560
51	16297	855.843333333161	7980
51	17218	906.143333333151	8400
51	18139	956.443333333141	8820
52	325	0.739999999997	535
52	1576	51.046666666654	1282
52	2497	101.346666666644	1702
52	3418	151.646666666634	2122
52	4339	201.946666666624	2542
52	5260	252.246666666614	2962
52	6181	302.546666666604	3382
52	7102	352.846666666594	3802
52	8023	403.146666666584	4222
52	8944	453.446666666574	4642
52	9865	503.746666666564	5062
52	10786	554.046666666554	5482
52	11707	604.346666666544	5902
52	12628	654.646666666534	6322
52	13549	704.946666666524	6742
52	14492	755.246666666514	7162
52	15413	805.546666666504	7582
52	16334	855.846666666494	8002
52	17255	906.146666666484	8422
52	18176	956.446666666474	8842
53	362	0.749999999997	1000
53	1613	51.049999999987	1000
53	2534	101.349999999977	1000
53	3455	151.649999999967	1000
53	4376	201.949999999957	1000
53	5297	252.249999999947	1000
53	6218	302.549999999937	1000
53	7139	352.849999999927	1000
53	8060	403.149999999917	1000
53	8981	453.449999999907	1000
53	9902	503.749999999897	1000
53	10823	554.049999999887	1000
53	11744	604.349999999877	1000
53	12665	654.649999999867	1000
53	13586	704.949999999857	1000
53	14529	755.249999999847	1000
53	15450	805.549999999837	1000
53	16371	855.849999999827	1000
53	17292	906.149999999817	1000
53	18213	956.449999999807	1000
