version 2
run General-0-20220517-15:53:50-19988
attr configname General
attr datetime 20220517-15:53:50
attr experiment General
attr inifile omnetpp.ini
attr iterationvars $traffic=1
attr iterationvars2 "$traffic=1, $repetition=0"
attr measurement $traffic=1
attr network BMACExampleNetwork
attr processid 19988
attr repetition 0
attr replication #0
attr resultdir results
attr runnumber 0
attr seedset 0
attr traffic 1

vector 84  BMACExampleNetwork.node[1].nic.mac  ""  ETV
vector 85  BMACExampleNetwork.node[2].nic.mac  ""  ETV
vector 86  BMACExampleNetwork.node[3].nic.mac  ""  ETV
vector 87  BMACExampleNetwork.node[4].nic.mac  ""  ETV
vector 88  BMACExampleNetwork.node[5].nic.mac  ""  ETV
vector 89  BMACExampleNetwork.node[6].nic.mac  ""  ETV
vector 90  BMACExampleNetwork.node[7].nic.mac  ""  ETV
vector 91  BMACExampleNetwork.node[8].nic.mac  ""  ETV
vector 92  BMACExampleNetwork.node[9].nic.mac  ""  ETV
vector 93  BMACExampleNetwork.node[10].nic.mac  ""  ETV
vector 94  BMACExampleNetwork.node[11].nic.mac  ""  ETV
vector 95  BMACExampleNetwork.node[12].nic.mac  ""  ETV
vector 96  BMACExampleNetwork.node[13].nic.mac  ""  ETV
vector 97  BMACExampleNetwork.node[14].nic.mac  ""  ETV
vector 98  BMACExampleNetwork.node[15].nic.mac  ""  ETV
vector 99  BMACExampleNetwork.node[16].nic.mac  ""  ETV
vector 100  BMACExampleNetwork.node[17].nic.mac  ""  ETV
vector 101  BMACExampleNetwork.node[18].nic.mac  ""  ETV
vector 102  BMACExampleNetwork.node[19].nic.mac  ""  ETV
vector 103  BMACExampleNetwork.node[20].nic.mac  ""  ETV
84	49	0.573333333333	295
84	3700	51.86999999998	2355
84	6721	102.46999999996	3995
84	9742	153.06999999994	5635
84	12763	203.66999999992	7275
84	15784	254.2699999999	8915
84	18805	304.86999999988	10555
84	21868	355.46999999986	12195
84	24889	406.06999999984	13835
84	27910	456.66999999982	15475
84	30931	507.2699999998	17115
84	33952	557.86999999978	18755
84	36973	608.46999999976	20395
84	39994	659.06999999974	22035
84	43015	709.66999999972	23675
84	46078	760.2699999997	25315
84	49099	810.86999999968	26955
84	52120	861.46999999966	28595
84	55141	912.06999999964	30235
84	58162	962.66999999962	31875
85	116	0.643333333333	337
85	3767	51.873333333313	2397
85	6788	102.473333333293	4037
85	9809	153.073333333273	5677
85	12830	203.673333333253	7317
85	15851	254.273333333233	8957
85	18872	304.873333333213	10597
85	21935	355.473333333193	12237
85	24956	406.073333333173	13877
85	27977	456.673333333153	15517
85	30998	507.273333333133	17157
85	34019	557.873333333113	18797
85	37040	608.473333333093	20437
85	40061	659.073333333073	22077
85	43082	709.673333333053	23717
85	46145	760.273333333033	25357
85	49166	810.873333333013	26997
85	52187	861.473333332993	28637
85	55208	912.073333332973	30277
85	58229	962.673333332953	31917
86	183	0.709999999999	379
86	3834	51.876666666646	2439
86	6855	102.476666666626	4079
86	9876	153.076666666606	5719
86	12897	203.676666666586	7359
86	15918	254.276666666566	8999
86	18939	304.876666666546	10639
86	22002	355.476666666526	12279
86	25023	406.076666666506	13919
86	28044	456.676666666486	15559
86	31065	507.276666666466	17199
86	34086	557.876666666446	18839
86	37107	608.476666666426	20479
86	40128	659.076666666406	22119
86	43149	709.676666666386	23759
86	46212	760.276666666366	25399
86	49233	810.876666666346	27039
86	52254	861.476666666326	28679
86	55275	912.076666666306	30319
86	58296	962.676666666286	31959
87	250	0.773333333332	421
87	3901	51.879999999979	2481
87	6922	102.479999999959	4121
87	9943	153.079999999939	5761
87	12964	203.679999999919	7401
87	15985	254.279999999899	9041
87	19006	304.879999999879	10681
87	22069	355.479999999859	12321
87	25090	406.079999999839	13961
87	28111	456.679999999819	15601
87	31132	507.279999999799	17241
87	34153	557.879999999779	18881
87	37174	608.479999999759	20521
87	40195	659.079999999739	22161
87	43216	709.679999999719	23801
87	46279	760.279999999699	25441
87	49300	810.879999999679	27081
87	52321	861.479999999659	28721
87	55342	912.079999999639	30361
87	58363	962.679999999619	32001
88	317	0.833333333332	463
88	3968	51.883333333312	2523
88	6989	102.483333333292	4163
88	10010	153.083333333272	5803
88	13031	203.683333333252	7443
88	16052	254.283333333232	9083
88	19073	304.883333333212	10723
88	22136	355.483333333192	12363
88	25157	406.083333333172	14003
88	28178	456.683333333152	15643
88	31199	507.283333333132	17283
88	34220	557.883333333112	18923
88	37241	608.483333333092	20563
88	40262	659.083333333072	22203
88	43283	709.683333333052	23843
88	46346	760.283333333032	25483
88	49367	810.883333333012	27123
88	52388	861.483333332992	28763
88	55409	912.083333332972	30403
88	58430	962.683333332952	32043
89	384	0.889999999998	505
89	4035	51.886666666645	2565
89	7056	102.486666666625	4205
89	10077	153.086666666605	5845
89	13098	203.686666666585	7485
89	16119	254.286666666565	9125
89	19140	304.886666666545	10765
89	22203	355.486666666525	12405
89	25224	406.086666666505	14045
89	28245	456.686666666485	15685
89	31266	507.286666666465	17325
89	34287	557.886666666445	18965
89	37308	608.486666666425	20605
89	40329	659.086666666405	22245
89	43350	709.686666666385	23885
89	46413	760.286666666365	25525
89	49434	810.886666666345	27165
89	52455	861.486666666325	28805
89	55476	912.086666666305	30445
89	58497	962.686666666285	32085
90	451	0.943333333331	547
90	4102	51.889999999978	2607
90	7123	102.489999999958	4247
90	10144	153.089999999938	5887
90	13165	203.689999999918	7527
90	16186	254.289999999898	9167
90	19207	304.889999999878	10807
90	22270	355.489999999858	12447
90	25291	406.089999999838	14087
90	28312	456.689999999818	15727
90	31333	507.289999999798	17367
90	34354	557.889999999778	19007
90	37375	608.489999999758	20647
90	40396	659.089999999738	22287
90	43417	709.689999999718	23927
90	46480	760.289999999698	25567
90	49501	810.889999999678	27207
90	52522	861.489999999658	28847
90	55543	912.089999999638	30487
90	58564	962.689999999618	32127
91	518	0.993333333331	589
91	4169	51.893333333311	2649
91	7190	102.493333333291	4289
91	10211	153.093333333271	5929
91	13232	203.693333333251	7569
91	16253	254.293333333231	9209
91	19274	304.893333333211	10849
91	22337	355.493333333191	12489
91	25358	406.093333333171	14129
91	28379	456.693333333151	15769
91	31400	507.293333333131	17409
91	34421	557.893333333111	19049
91	37442	608.493333333091	20689
91	40463	659.093333333071	22329
91	43484	709.693333333051	23969
91	46547	760.293333333031	25609
91	49568	810.893333333011	27249
91	52589	861.493333332991	28889
91	55610	912.093333332971	30529
91	58631	962.693333332951	32169
92	585	1.039999999997	631
92	4236	51.896666666644	2691
92	7257	102.496666666624	4331
92	10278	153.096666666604	5971
92	13299	203.696666666584	7611
92	16320	254.296666666564	9251
92	19341	304.896666666544	10891
92	22404	355.496666666524	12531
92	25425	406.096666666504	14171
92	28446	456.696666666484	15811
92	31467	507.296666666464	17451
92	34488	557.896666666444	19091
92	37509	608.496666666424	20731
92	40530	659.096666666404	22371
92	43551	709.696666666384	24011
92	46614	760.296666666364	25651
92	49635	810.896666666344	27291
92	52656	861.496666666324	28931
92	55677	912.096666666304	30571
92	58698	962.696666666284	32211
93	652	1.08333333333	673
93	4303	51.899999999977	2733
93	7324	102.499999999957	4373
93	10345	153.099999999937	6013
93	13366	203.699999999917	7653
93	16387	254.299999999897	9293
93	19408	304.899999999877	10933
93	22471	355.499999999857	12573
93	25492	406.099999999837	14213
93	28513	456.699999999817	15853
93	31534	507.299999999797	17493
93	34555	557.899999999777	19133
93	37576	608.499999999757	20773
93	40597	659.099999999737	22413
93	43618	709.699999999717	24053
93	46681	760.299999999697	25693
93	49702	810.899999999677	27333
93	52723	861.499999999657	28973
93	55744	912.099999999637	30613
93	58765	962.699999999617	32253
94	719	1.12333333333	715
94	4370	51.90333333331	2775
94	7391	102.50333333329	4415
94	10412	153.10333333327	6055
94	13433	203.70333333325	7695
94	16454	254.30333333323	9335
94	19475	304.90333333321	10975
94	22538	355.50333333319	12615
94	25559	406.10333333317	14255
94	28580	456.70333333315	15895
94	31601	507.30333333313	17535
94	34622	557.90333333311	19175
94	37643	608.50333333309	20815
94	40664	659.10333333307	22455
94	43685	709.70333333305	24095
94	46748	760.30333333303	25735
94	49769	810.90333333301	27375
94	52790	861.50333333299	29015
94	55811	912.10333333297	30655
94	58832	962.70333333295	32295
95	786	1.159999999996	757
95	4437	51.906666666643	2817
95	7458	102.506666666623	4457
95	10479	153.106666666603	6097
95	13500	203.706666666583	7737
95	16521	254.306666666563	9377
95	19542	304.906666666543	11017
95	22605	355.506666666523	12657
95	25626	406.106666666503	14297
95	28647	456.706666666483	15937
95	31668	507.306666666463	17577
95	34689	557.906666666443	19217
95	37710	608.506666666423	20857
95	40731	659.106666666403	22497
95	43752	709.706666666383	24137
95	46815	760.306666666363	25777
95	49836	810.906666666343	27417
95	52857	861.506666666323	29057
95	55878	912.106666666303	30697
95	58899	962.706666666283	32337
96	853	1.193333333329	799
96	4504	51.909999999976	2859
96	7525	102.509999999956	4499
96	10546	153.109999999936	6139
96	13567	203.709999999916	7779
96	16588	254.309999999896	9419
96	19609	304.909999999876	11059
96	22672	355.509999999856	12699
96	25693	406.109999999836	14339
96	28714	456.709999999816	15979
96	31735	507.309999999796	17619
96	34756	557.909999999776	19259
96	37777	608.509999999756	20899
96	40798	659.109999999736	22539
96	43819	709.709999999716	24179
96	46882	760.309999999696	25819
96	49903	810.909999999676	27459
96	52924	861.509999999656	29099
96	55945	912.109999999636	30739
96	58966	962.709999999616	32379
97	920	1.223333333329	841
97	4571	51.913333333309	2901
97	7592	102.513333333289	4541
97	10613	153.113333333269	6181
97	13634	203.713333333249	7821
97	16655	254.313333333229	9461
97	19676	304.913333333209	11101
97	22739	355.513333333189	12741
97	25760	406.113333333169	14381
97	28781	456.713333333149	16021
97	31802	507.313333333129	17661
97	34823	557.913333333109	19301
97	37844	608.513333333089	20941
97	40865	659.113333333069	22581
97	43886	709.713333333049	24221
97	46949	760.313333333029	25861
97	49970	810.913333333009	27501
97	52991	861.513333332989	29141
97	56012	912.113333332969	30781
97	59033	962.713333332949	32421
98	987	1.249999999995	883
98	4638	51.916666666642	2943
98	7659	102.516666666622	4583
98	10680	153.116666666602	6223
98	13701	203.716666666582	7863
98	16722	254.316666666562	9503
98	19743	304.916666666542	11143
98	22806	355.516666666522	12783
98	25827	406.116666666502	14423
98	28848	456.716666666482	16063
98	31869	507.316666666462	17703
98	34890	557.916666666442	19343
98	37911	608.516666666422	20983
98	40932	659.116666666402	22623
98	43953	709.716666666382	24263
98	47016	760.316666666362	25903
98	50037	810.916666666342	27543
98	53058	861.516666666322	29183
98	56079	912.116666666302	30823
98	59100	962.716666666282	32463
99	1054	1.273333333328	925
99	4705	51.919999999975	2985
99	7726	102.519999999955	4625
99	10747	153.119999999935	6265
99	13768	203.719999999915	7905
99	16789	254.319999999895	9545
99	19810	304.919999999875	11185
99	22873	355.519999999855	12825
99	25894	406.119999999835	14465
99	28915	456.719999999815	16105
99	31936	507.319999999795	17745
99	34957	557.919999999775	19385
99	37978	608.519999999755	21025
99	40999	659.119999999735	22665
99	44020	709.719999999715	24305
99	47083	760.319999999695	25945
99	50104	810.919999999675	27585
99	53125	861.519999999655	29225
99	56146	912.119999999635	30865
99	59167	962.719999999615	32505
100	1121	1.293333333328	967
100	4772	51.923333333308	3027
100	7793	102.523333333288	4667
100	10814	153.123333333268	6307
100	13835	203.723333333248	7947
100	16856	254.323333333228	9587
100	19877	304.923333333208	11227
100	22940	355.523333333188	12867
100	25961	406.123333333168	14507
100	28982	456.723333333148	16147
100	32003	507.323333333128	17787
100	35024	557.923333333108	19427
100	38045	608.523333333088	21067
100	41066	659.123333333068	22707
100	44087	709.723333333048	24347
100	47150	760.323333333028	25987
100	50171	810.923333333008	27627
100	53192	861.523333332988	29267
100	56213	912.123333332968	30907
100	59234	962.723333332948	32547
101	1188	1.309999999994	1009
101	4839	51.926666666641	3069
101	7860	102.526666666621	4709
101	10881	153.126666666601	6349
101	13902	203.726666666581	7989
101	16923	254.326666666561	9629
101	19944	304.926666666541	11269
101	23007	355.526666666521	12909
101	26028	406.126666666501	14549
101	29049	456.726666666481	16189
101	32070	507.326666666461	17829
101	35091	557.926666666441	19469
101	38112	608.526666666421	21109
101	41133	659.126666666401	22749
101	44154	709.726666666381	24389
101	47217	760.326666666361	26029
101	50238	810.926666666341	27669
101	53259	861.526666666321	29309
101	56280	912.126666666301	30949
101	59301	962.726666666281	32589
102	1255	1.323333333327	1051
102	4906	51.929999999974	3111
102	7927	102.529999999954	4751
102	10948	153.129999999934	6391
102	13969	203.729999999914	8031
102	16990	254.329999999894	9671
102	20011	304.929999999874	11311
102	23074	355.529999999854	12951
102	26095	406.129999999834	14591
102	29116	456.729999999814	16231
102	32137	507.329999999794	17871
102	35158	557.929999999774	19511
102	38179	608.529999999754	21151
102	41200	659.129999999734	22791
102	44221	709.729999999714	24431
102	47284	760.329999999694	26071
102	50305	810.929999999674	27711
102	53326	861.529999999654	29351
102	56347	912.129999999634	30991
102	59368	962.729999999614	32631
103	1322	1.333333333327	1000
103	4973	51.933333333307	1000
103	7994	102.533333333287	1000
103	11015	153.133333333267	1000
103	14036	203.733333333247	1000
103	17057	254.333333333227	1000
103	20078	304.933333333207	1000
103	23141	355.533333333187	1000
103	26162	406.133333333167	1000
103	29183	456.733333333147	1000
103	32204	507.333333333127	1000
103	35225	557.933333333107	1000
103	38246	608.533333333087	1000
103	41267	659.133333333067	1000
103	44288	709.733333333047	1000
103	47351	760.333333333027	1000
103	50372	810.933333333007	1000
103	53393	861.533333332987	1000
103	56414	912.133333332967	1000
103	59435	962.733333332947	1000
