version 2
run General-0-20220517-15:47:46-10900
attr configname General
attr datetime 20220517-15:47:46
attr experiment General
attr inifile omnetpp.ini
attr iterationvars $traffic=1
attr iterationvars2 "$traffic=1, $repetition=0"
attr measurement $traffic=1
attr network BMACExampleNetwork
attr processid 10900
attr repetition 0
attr replication #0
attr resultdir results
attr runnumber 0
attr seedset 0
attr traffic 1

vector 164  BMACExampleNetwork.node[1].nic.mac  ""  ETV
vector 165  BMACExampleNetwork.node[2].nic.mac  ""  ETV
vector 166  BMACExampleNetwork.node[3].nic.mac  ""  ETV
vector 167  BMACExampleNetwork.node[4].nic.mac  ""  ETV
vector 168  BMACExampleNetwork.node[5].nic.mac  ""  ETV
vector 169  BMACExampleNetwork.node[6].nic.mac  ""  ETV
vector 170  BMACExampleNetwork.node[7].nic.mac  ""  ETV
vector 171  BMACExampleNetwork.node[8].nic.mac  ""  ETV
vector 172  BMACExampleNetwork.node[9].nic.mac  ""  ETV
vector 173  BMACExampleNetwork.node[10].nic.mac  ""  ETV
vector 174  BMACExampleNetwork.node[11].nic.mac  ""  ETV
vector 175  BMACExampleNetwork.node[12].nic.mac  ""  ETV
vector 176  BMACExampleNetwork.node[13].nic.mac  ""  ETV
vector 177  BMACExampleNetwork.node[14].nic.mac  ""  ETV
vector 178  BMACExampleNetwork.node[15].nic.mac  ""  ETV
vector 179  BMACExampleNetwork.node[16].nic.mac  ""  ETV
vector 180  BMACExampleNetwork.node[17].nic.mac  ""  ETV
vector 181  BMACExampleNetwork.node[18].nic.mac  ""  ETV
vector 182  BMACExampleNetwork.node[19].nic.mac  ""  ETV
vector 183  BMACExampleNetwork.node[20].nic.mac  ""  ETV
vector 184  BMACExampleNetwork.node[21].nic.mac  ""  ETV
vector 185  BMACExampleNetwork.node[22].nic.mac  ""  ETV
vector 186  BMACExampleNetwork.node[23].nic.mac  ""  ETV
vector 187  BMACExampleNetwork.node[24].nic.mac  ""  ETV
vector 188  BMACExampleNetwork.node[25].nic.mac  ""  ETV
vector 189  BMACExampleNetwork.node[26].nic.mac  ""  ETV
vector 190  BMACExampleNetwork.node[27].nic.mac  ""  ETV
vector 191  BMACExampleNetwork.node[28].nic.mac  ""  ETV
vector 192  BMACExampleNetwork.node[29].nic.mac  ""  ETV
vector 193  BMACExampleNetwork.node[30].nic.mac  ""  ETV
vector 194  BMACExampleNetwork.node[31].nic.mac  ""  ETV
vector 195  BMACExampleNetwork.node[32].nic.mac  ""  ETV
vector 196  BMACExampleNetwork.node[33].nic.mac  ""  ETV
vector 197  BMACExampleNetwork.node[34].nic.mac  ""  ETV
vector 198  BMACExampleNetwork.node[35].nic.mac  ""  ETV
vector 199  BMACExampleNetwork.node[36].nic.mac  ""  ETV
vector 200  BMACExampleNetwork.node[37].nic.mac  ""  ETV
vector 201  BMACExampleNetwork.node[38].nic.mac  ""  ETV
vector 202  BMACExampleNetwork.node[39].nic.mac  ""  ETV
vector 203  BMACExampleNetwork.node[40].nic.mac  ""  ETV
164	89	0.64	575
164	12140	54.56999999996	7875
164	23043	105.76999999992	14355
164	33864	156.96999999988	20835
164	44685	208.16999999984	27315
164	55506	259.3699999998	33795
164	66409	310.56999999976	40275
164	77230	361.76999999972	46755
164	88051	412.96999999968	53235
164	98872	464.16999999964	59715
164	109775	515.3699999996	66195
164	120596	566.56999999956	72675
164	131417	617.76999999952	79155
164	142238	668.96999999948	85635
164	153141	720.16999999944	92115
164	163962	771.3699999994	98595
164	174783	822.56999999936	105075
164	185604	873.76999999932	111555
164	196425	924.96999999928	118035
164	207328	976.16999999924	124515
165	216	0.776666666666	657
165	12267	54.573333333293	7957
165	23170	105.773333333253	14437
165	33991	156.973333333213	20917
165	44812	208.173333333173	27397
165	55633	259.373333333133	33877
165	66536	310.573333333093	40357
165	77357	361.773333333053	46837
165	88178	412.973333333013	53317
165	98999	464.173333332973	59797
165	109902	515.373333332933	66277
165	120723	566.573333332893	72757
165	131544	617.773333332853	79237
165	142365	668.973333332813	85717
165	153268	720.173333332773	92197
165	164089	771.373333332733	98677
165	174910	822.573333332693	105157
165	185731	873.773333332653	111637
165	196552	924.973333332613	118117
165	207455	976.173333332573	124597
166	343	0.909999999999	739
166	12394	54.576666666626	8039
166	23297	105.776666666586	14519
166	34118	156.976666666546	20999
166	44939	208.176666666506	27479
166	55760	259.376666666466	33959
166	66663	310.576666666426	40439
166	77484	361.776666666386	46919
166	88305	412.976666666346	53399
166	99126	464.176666666306	59879
166	110029	515.376666666266	66359
166	120850	566.576666666226	72839
166	131671	617.776666666186	79319
166	142492	668.976666666146	85799
166	153395	720.176666666106	92279
166	164216	771.376666666066	98759
166	175037	822.576666666026	105239
166	185858	873.776666665986	111719
166	196679	924.976666665946	118199
166	207582	976.176666665906	124679
167	470	1.039999999999	821
167	12521	54.579999999959	8121
167	23424	105.779999999919	14601
167	34245	156.979999999879	21081
167	45066	208.179999999839	27561
167	55887	259.379999999799	34041
167	66790	310.579999999759	40521
167	77611	361.779999999719	47001
167	88432	412.979999999679	53481
167	99253	464.179999999639	59961
167	110156	515.379999999599	66441
167	120977	566.579999999559	72921
167	131798	617.779999999519	79401
167	142619	668.979999999479	85881
167	153522	720.179999999439	92361
167	164343	771.379999999399	98841
167	175164	822.579999999359	105321
167	185985	873.779999999319	111801
167	196806	924.979999999279	118281
167	207709	976.179999999239	124761
168	597	1.166666666665	903
168	12648	54.583333333292	8203
168	23551	105.783333333252	14683
168	34372	156.983333333212	21163
168	45193	208.183333333172	27643
168	56014	259.383333333132	34123
168	66917	310.583333333092	40603
168	77738	361.783333333052	47083
168	88559	412.983333333012	53563
168	99380	464.183333332972	60043
168	110283	515.383333332932	66523
168	121104	566.583333332892	73003
168	131925	617.783333332852	79483
168	142746	668.983333332812	85963
168	153649	720.183333332772	92443
168	164470	771.383333332732	98923
168	175291	822.583333332692	105403
168	186112	873.783333332652	111883
168	196933	924.983333332612	118363
168	207836	976.183333332572	124843
169	724	1.289999999998	985
169	12775	54.586666666625	8285
169	23678	105.786666666585	14765
169	34499	156.986666666545	21245
169	45320	208.186666666505	27725
169	56141	259.386666666465	34205
169	67044	310.586666666425	40685
169	77865	361.786666666385	47165
169	88686	412.986666666345	53645
169	99507	464.186666666305	60125
169	110410	515.386666666265	66605
169	121231	566.586666666225	73085
169	132052	617.786666666185	79565
169	142873	668.986666666145	86045
169	153776	720.186666666105	92525
169	164597	771.386666666065	99005
169	175418	822.586666666025	105485
169	186239	873.786666665985	111965
169	197060	924.986666665945	118445
169	207963	976.186666665905	124925
170	851	1.409999999998	1067
170	12902	54.589999999958	8367
170	23805	105.789999999918	14847
170	34626	156.989999999878	21327
170	45447	208.189999999838	27807
170	56268	259.389999999798	34287
170	67171	310.589999999758	40767
170	77992	361.789999999718	47247
170	88813	412.989999999678	53727
170	99634	464.189999999638	60207
170	110537	515.389999999598	66687
170	121358	566.589999999558	73167
170	132179	617.789999999518	79647
170	143000	668.989999999478	86127
170	153903	720.189999999438	92607
170	164724	771.389999999398	99087
170	175545	822.589999999358	105567
170	186366	873.789999999318	112047
170	197187	924.989999999278	118527
170	208090	976.189999999238	125007
171	978	1.526666666664	1149
171	13029	54.593333333291	8449
171	23932	105.793333333251	14929
171	34753	156.993333333211	21409
171	45574	208.193333333171	27889
171	56395	259.393333333131	34369
171	67298	310.593333333091	40849
171	78119	361.793333333051	47329
171	88940	412.993333333011	53809
171	99761	464.193333332971	60289
171	110664	515.393333332931	66769
171	121485	566.593333332891	73249
171	132306	617.793333332851	79729
171	143127	668.993333332811	86209
171	154030	720.193333332771	92689
171	164851	771.393333332731	99169
171	175672	822.593333332691	105649
171	186493	873.793333332651	112129
171	197314	924.993333332611	118609
171	208217	976.193333332571	125089
172	1105	1.639999999997	1231
172	13156	54.596666666624	8531
172	24059	105.796666666584	15011
172	34880	156.996666666544	21491
172	45701	208.196666666504	27971
172	56522	259.396666666464	34451
172	67425	310.596666666424	40931
172	78246	361.796666666384	47411
172	89067	412.996666666344	53891
172	99888	464.196666666304	60371
172	110791	515.396666666264	66851
172	121612	566.596666666224	73331
172	132433	617.796666666184	79811
172	143254	668.996666666144	86291
172	154157	720.196666666104	92771
172	164978	771.396666666064	99251
172	175799	822.596666666024	105731
172	186620	873.796666665984	112211
172	197441	924.996666665944	118691
172	208344	976.196666665904	125171
173	1232	1.749999999997	1313
173	13283	54.599999999957	8613
173	24186	105.799999999917	15093
173	35007	156.999999999877	21573
173	45828	208.199999999837	28053
173	56649	259.399999999797	34533
173	67552	310.599999999757	41013
173	78373	361.799999999717	47493
173	89194	412.999999999677	53973
173	100015	464.199999999637	60453
173	110918	515.399999999597	66933
173	121739	566.599999999557	73413
173	132560	617.799999999517	79893
173	143381	668.999999999477	86373
173	154284	720.199999999437	92853
173	165105	771.399999999397	99333
173	175926	822.599999999357	105813
173	186747	873.799999999317	112293
173	197568	924.999999999277	118773
173	208471	976.199999999237	125253
174	1359	1.856666666663	1395
174	13410	54.60333333329	8695
174	24313	105.80333333325	15175
174	35134	157.00333333321	21655
174	45955	208.20333333317	28135
174	56776	259.40333333313	34615
174	67679	310.60333333309	41095
174	78500	361.80333333305	47575
174	89321	413.00333333301	54055
174	100142	464.20333333297	60535
174	111045	515.40333333293	67015
174	121866	566.60333333289	73495
174	132687	617.80333333285	79975
174	143508	669.00333333281	86455
174	154411	720.20333333277	92935
174	165232	771.40333333273	99415
174	176053	822.60333333269	105895
174	186874	873.80333333265	112375
174	197777	925.00333333261	118855
174	208598	976.20333333257	125335
175	1486	1.959999999996	1477
175	13537	54.606666666623	8777
175	24440	105.806666666583	15257
175	35261	157.006666666543	21737
175	46082	208.206666666503	28217
175	56903	259.406666666463	34697
175	67806	310.606666666423	41177
175	78627	361.806666666383	47657
175	89448	413.006666666343	54137
175	100269	464.206666666303	60617
175	111172	515.406666666263	67097
175	121993	566.606666666223	73577
175	132814	617.806666666183	80057
175	143635	669.006666666143	86537
175	154538	720.206666666103	93017
175	165359	771.406666666063	99497
175	176180	822.606666666023	105977
175	187001	873.806666665983	112457
175	197904	925.006666665943	118937
175	208725	976.206666665903	125417
176	1613	2.059999999996	1559
176	13664	54.609999999956	8859
176	24567	105.809999999916	15339
176	35388	157.009999999876	21819
176	46209	208.209999999836	28299
176	57030	259.409999999796	34779
176	67933	310.609999999756	41259
176	78754	361.809999999716	47739
176	89575	413.009999999676	54219
176	100396	464.209999999636	60699
176	111299	515.409999999596	67179
176	122120	566.609999999556	73659
176	132941	617.809999999516	80139
176	143762	669.009999999476	86619
176	154665	720.209999999436	93099
176	165486	771.409999999396	99579
176	176307	822.609999999356	106059
176	187128	873.809999999316	112539
176	198031	925.009999999276	119019
176	208852	976.209999999236	125499
177	1740	2.156666666662	1641
177	13791	54.613333333289	8941
177	24694	105.813333333249	15421
177	35515	157.013333333209	21901
177	46336	208.213333333169	28381
177	57157	259.413333333129	34861
177	68060	310.613333333089	41341
177	78881	361.813333333049	47821
177	89702	413.013333333009	54301
177	100523	464.213333332969	60781
177	111426	515.413333332929	67261
177	122247	566.613333332889	73741
177	133068	617.813333332849	80221
177	143889	669.013333332809	86701
177	154792	720.213333332769	93181
177	165613	771.413333332729	99661
177	176434	822.613333332689	106141
177	187255	873.813333332649	112621
177	198158	925.013333332609	119101
177	208979	976.213333332569	125581
178	1867	2.249999999995	1723
178	13918	54.616666666622	9023
178	24821	105.816666666582	15503
178	35642	157.016666666542	21983
178	46463	208.216666666502	28463
178	57284	259.416666666462	34943
178	68187	310.616666666422	41423
178	79008	361.816666666382	47903
178	89829	413.016666666342	54383
178	100650	464.216666666302	60863
178	111553	515.416666666262	67343
178	122374	566.616666666222	73823
178	133195	617.816666666182	80303
178	144016	669.016666666142	86783
178	154919	720.216666666102	93263
178	165740	771.416666666062	99743
178	176561	822.616666666022	106223
178	187382	873.816666665982	112703
178	198285	925.016666665942	119183
178	209106	976.216666665902	125663
179	1994	2.339999999995	1805
179	14045	54.619999999955	9105
179	24948	105.819999999915	15585
179	35769	157.019999999875	22065
179	46590	208.219999999835	28545
179	57411	259.419999999795	35025
179	68314	310.619999999755	41505
179	79135	361.819999999715	47985
179	89956	413.019999999675	54465
179	100777	464.219999999635	60945
179	111680	515.419999999595	67425
179	122501	566.619999999555	73905
179	133322	617.819999999515	80385
179	144143	669.019999999475	86865
179	155046	720.219999999435	93345
179	165867	771.419999999395	99825
179	176688	822.619999999355	106305
179	187509	873.819999999315	112785
179	198412	925.019999999275	119265
179	209233	976.219999999235	125745
180	2121	2.426666666661	1887
180	14172	54.623333333288	9187
180	25075	105.823333333248	15667
180	35896	157.023333333208	22147
180	46717	208.223333333168	28627
180	57538	259.423333333128	35107
180	68441	310.623333333088	41587
180	79262	361.823333333048	48067
180	90083	413.023333333008	54547
180	100904	464.223333332968	61027
180	111807	515.423333332928	67507
180	122628	566.623333332888	73987
180	133449	617.823333332848	80467
180	144270	669.023333332808	86947
180	155173	720.223333332768	93427
180	165994	771.423333332728	99907
180	176815	822.623333332688	106387
180	187636	873.823333332648	112867
180	198539	925.023333332608	119347
180	209360	976.223333332568	125827
181	2248	2.509999999994	1969
181	14299	54.626666666621	9269
181	25202	105.826666666581	15749
181	36023	157.026666666541	22229
181	46844	208.226666666501	28709
181	57665	259.426666666461	35189
181	68568	310.626666666421	41669
181	79389	361.826666666381	48149
181	90210	413.026666666341	54629
181	101031	464.226666666301	61109
181	111934	515.426666666261	67589
181	122755	566.626666666221	74069
181	133576	617.826666666181	80549
181	144397	669.026666666141	87029
181	155300	720.226666666101	93509
181	166121	771.426666666061	99989
181	176942	822.626666666021	106469
181	187763	873.826666665981	112949
181	198666	925.026666665941	119429
181	209487	976.226666665901	125909
182	2375	2.589999999994	2051
182	14426	54.629999999954	9351
182	25329	105.829999999914	15831
182	36150	157.029999999874	22311
182	46971	208.229999999834	28791
182	57792	259.429999999794	35271
182	68695	310.629999999754	41751
182	79516	361.829999999714	48231
182	90337	413.029999999674	54711
182	101158	464.229999999634	61191
182	112061	515.429999999594	67671
182	122882	566.629999999554	74151
182	133703	617.829999999514	80631
182	144524	669.029999999474	87111
182	155427	720.229999999434	93591
182	166248	771.429999999394	100071
182	177069	822.629999999354	106551
182	187890	873.829999999314	113031
182	198793	925.029999999274	119511
182	209614	976.229999999234	125991
183	2502	2.66666666666	2133
183	14553	54.633333333287	9433
183	25456	105.833333333247	15913
183	36277	157.033333333207	22393
183	47098	208.233333333167	28873
183	57919	259.433333333127	35353
183	68822	310.633333333087	41833
183	79643	361.833333333047	48313
183	90464	413.033333333007	54793
183	101285	464.233333332967	61273
183	112188	515.433333332927	67753
183	123009	566.633333332887	74233
183	133830	617.833333332847	80713
183	144651	669.033333332807	87193
183	155554	720.233333332767	93673
183	166375	771.433333332727	100153
183	177196	822.633333332687	106633
183	188017	873.833333332647	113113
183	198920	925.033333332607	119593
183	209741	976.233333332567	126073
184	2629	2.739999999993	2215
184	14680	54.63666666662	9515
184	25583	105.83666666658	15995
184	36404	157.03666666654	22475
184	47225	208.2366666665	28955
184	58046	259.43666666646	35435
184	68949	310.63666666642	41915
184	79770	361.83666666638	48395
184	90591	413.03666666634	54875
184	101412	464.2366666663	61355
184	112315	515.43666666626	67835
184	123136	566.63666666622	74315
184	133957	617.83666666618	80795
184	144778	669.03666666614	87275
184	155681	720.2366666661	93755
184	166502	771.43666666606	100235
184	177323	822.63666666602	106715
184	188144	873.83666666598	113195
184	199047	925.03666666594	119675
184	209868	976.2366666659	126155
185	2756	2.809999999993	2297
185	14807	54.639999999953	9597
185	25710	105.839999999913	16077
185	36531	157.039999999873	22557
185	47352	208.239999999833	29037
185	58173	259.439999999793	35517
185	69076	310.639999999753	41997
185	79897	361.839999999713	48477
185	90718	413.039999999673	54957
185	101539	464.239999999633	61437
185	112442	515.439999999593	67917
185	123263	566.639999999553	74397
185	134084	617.839999999513	80877
185	144905	669.039999999473	87357
185	155808	720.239999999433	93837
185	166629	771.439999999393	100317
185	177450	822.639999999353	106797
185	188271	873.839999999313	113277
185	199174	925.039999999273	119757
185	209995	976.239999999233	126237
186	2883	2.876666666659	2379
186	14934	54.643333333286	9679
186	25837	105.843333333246	16159
186	36658	157.043333333206	22639
186	47479	208.243333333166	29119
186	58300	259.443333333126	35599
186	69203	310.643333333086	42079
186	80024	361.843333333046	48559
186	90845	413.043333333006	55039
186	101666	464.243333332966	61519
186	112569	515.443333332926	67999
186	123390	566.643333332886	74479
186	134211	617.843333332846	80959
186	145032	669.043333332806	87439
186	155935	720.243333332766	93919
186	166756	771.443333332726	100399
186	177577	822.643333332686	106879
186	188398	873.843333332646	113359
186	199301	925.043333332606	119839
186	210122	976.243333332566	126319
187	3010	2.939999999992	2461
187	15061	54.646666666619	9761
187	25964	105.846666666579	16241
187	36785	157.046666666539	22721
187	47606	208.246666666499	29201
187	58427	259.446666666459	35681
187	69330	310.646666666419	42161
187	80151	361.846666666379	48641
187	90972	413.046666666339	55121
187	101793	464.246666666299	61601
187	112696	515.446666666259	68081
187	123517	566.646666666219	74561
187	134338	617.846666666179	81041
187	145159	669.046666666139	87521
187	156062	720.246666666099	94001
187	166883	771.446666666059	100481
187	177704	822.646666666019	106961
187	188525	873.846666665979	113441
187	199428	925.046666665939	119921
187	210249	976.246666665899	126401
188	3137	2.999999999992	2543
188	15188	54.649999999952	9843
188	26091	105.849999999912	16323
188	36912	157.049999999872	22803
188	47733	208.249999999832	29283
188	58554	259.449999999792	35763
188	69457	310.649999999752	42243
188	80278	361.849999999712	48723
188	91099	413.049999999672	55203
188	101920	464.249999999632	61683
188	112823	515.449999999592	68163
188	123644	566.649999999552	74643
188	134465	617.849999999512	81123
188	145286	669.049999999472	87603
188	156189	720.249999999432	94083
188	167010	771.449999999392	100563
188	177831	822.649999999352	107043
188	188652	873.849999999312	113523
188	199555	925.049999999272	120003
188	210376	976.249999999232	126483
189	3264	3.056666666658	2625
189	15315	54.653333333285	9925
189	26218	105.853333333245	16405
189	37039	157.053333333205	22885
189	47860	208.253333333165	29365
189	58681	259.453333333125	35845
189	69584	310.653333333085	42325
189	80405	361.853333333045	48805
189	91226	413.053333333005	55285
189	102047	464.253333332965	61765
189	112950	515.453333332925	68245
189	123771	566.653333332885	74725
189	134592	617.853333332845	81205
189	145413	669.053333332805	87685
189	156316	720.253333332765	94165
189	167137	771.453333332725	100645
189	177958	822.653333332685	107125
189	188779	873.853333332645	113605
189	199682	925.053333332605	120085
189	210503	976.253333332565	126565
190	3391	3.109999999991	2707
190	15442	54.656666666618	10007
190	26345	105.856666666578	16487
190	37166	157.056666666538	22967
190	47987	208.256666666498	29447
190	58808	259.456666666458	35927
190	69711	310.656666666418	42407
190	80532	361.856666666378	48887
190	91353	413.056666666338	55367
190	102174	464.256666666298	61847
190	113077	515.456666666258	68327
190	123898	566.656666666218	74807
190	134719	617.856666666178	81287
190	145540	669.056666666138	87767
190	156443	720.256666666098	94247
190	167264	771.456666666058	100727
190	178085	822.656666666018	107207
190	188906	873.856666665978	113687
190	199809	925.056666665938	120167
190	210630	976.256666665898	126647
191	3518	3.159999999991	2789
191	15569	54.659999999951	10089
191	26472	105.859999999911	16569
191	37293	157.059999999871	23049
191	48114	208.259999999831	29529
191	58935	259.459999999791	36009
191	69838	310.659999999751	42489
191	80659	361.859999999711	48969
191	91480	413.059999999671	55449
191	102301	464.259999999631	61929
191	113204	515.459999999591	68409
191	124025	566.659999999551	74889
191	134846	617.859999999511	81369
191	145667	669.059999999471	87849
191	156570	720.259999999431	94329
191	167391	771.459999999391	100809
191	178212	822.659999999351	107289
191	189033	873.859999999311	113769
191	199936	925.059999999271	120249
191	210757	976.259999999231	126729
192	3645	3.206666666657	2871
192	15696	54.663333333284	10171
192	26599	105.863333333244	16651
192	37420	157.063333333204	23131
192	48241	208.263333333164	29611
192	59062	259.463333333124	36091
192	69965	310.663333333084	42571
192	80786	361.863333333044	49051
192	91607	413.063333333004	55531
192	102428	464.263333332964	62011
192	113331	515.463333332924	68491
192	124152	566.663333332884	74971
192	134973	617.863333332844	81451
192	145794	669.063333332804	87931
192	156697	720.263333332764	94411
192	167518	771.463333332724	100891
192	178339	822.663333332684	107371
192	189160	873.863333332644	113851
192	200063	925.063333332604	120331
192	210884	976.263333332564	126811
193	3772	3.24999999999	2953
193	15823	54.666666666617	10253
193	26726	105.866666666577	16733
193	37547	157.066666666537	23213
193	48368	208.266666666497	29693
193	59189	259.466666666457	36173
193	70092	310.666666666417	42653
193	80913	361.866666666377	49133
193	91734	413.066666666337	55613
193	102555	464.266666666297	62093
193	113458	515.466666666257	68573
193	124279	566.666666666217	75053
193	135100	617.866666666177	81533
193	145921	669.066666666137	88013
193	156824	720.266666666097	94493
193	167645	771.466666666057	100973
193	178466	822.666666666017	107453
193	189287	873.866666665977	113933
193	200190	925.066666665937	120413
193	211011	976.266666665897	126893
194	3899	3.28999999999	3035
194	15950	54.66999999995	10335
194	26853	105.86999999991	16815
194	37674	157.06999999987	23295
194	48495	208.26999999983	29775
194	59316	259.46999999979	36255
194	70219	310.66999999975	42735
194	81040	361.86999999971	49215
194	91861	413.06999999967	55695
194	102682	464.26999999963	62175
194	113585	515.46999999959	68655
194	124406	566.66999999955	75135
194	135227	617.86999999951	81615
194	146048	669.06999999947	88095
194	156951	720.26999999943	94575
194	167772	771.46999999939	101055
194	178593	822.66999999935	107535
194	189414	873.86999999931	114015
194	200317	925.06999999927	120495
194	211138	976.26999999923	126975
195	4026	3.326666666656	3117
195	16077	54.673333333283	10417
195	26980	105.873333333243	16897
195	37801	157.073333333203	23377
195	48622	208.273333333163	29857
195	59443	259.473333333123	36337
195	70346	310.673333333083	42817
195	81167	361.873333333043	49297
195	91988	413.073333333003	55777
195	102809	464.273333332963	62257
195	113712	515.473333332923	68737
195	124533	566.673333332883	75217
195	135354	617.873333332843	81697
195	146175	669.073333332803	88177
195	157078	720.273333332763	94657
195	167899	771.473333332723	101137
195	178720	822.673333332683	107617
195	189541	873.873333332643	114097
195	200444	925.073333332603	120577
195	211265	976.273333332563	127057
196	4153	3.359999999989	3199
196	16204	54.676666666616	10499
196	27107	105.876666666576	16979
196	37928	157.076666666536	23459
196	48749	208.276666666496	29939
196	59570	259.476666666456	36419
196	70473	310.676666666416	42899
196	81294	361.876666666376	49379
196	92115	413.076666666336	55859
196	102936	464.276666666296	62339
196	113839	515.476666666256	68819
196	124660	566.676666666216	75299
196	135481	617.876666666176	81779
196	146302	669.076666666136	88259
196	157205	720.276666666096	94739
196	168026	771.476666666056	101219
196	178847	822.676666666016	107699
196	189668	873.876666665976	114179
196	200571	925.076666665936	120659
196	211392	976.276666665896	127139
197	4280	3.389999999989	3281
197	16331	54.679999999949	10581
197	27234	105.879999999909	17061
197	38055	157.079999999869	23541
197	48876	208.279999999829	30021
197	59697	259.479999999789	36501
197	70600	310.679999999749	42981
197	81421	361.879999999709	49461
197	92242	413.079999999669	55941
197	103063	464.279999999629	62421
197	113966	515.479999999589	68901
197	124787	566.679999999549	75381
197	135608	617.879999999509	81861
197	146429	669.079999999469	88341
197	157332	720.279999999429	94821
197	168153	771.479999999389	101301
197	178974	822.679999999349	107781
197	189795	873.879999999309	114261
197	200698	925.079999999269	120741
197	211519	976.279999999229	127221
198	4407	3.416666666655	3363
198	16458	54.683333333282	10663
198	27361	105.883333333242	17143
198	38182	157.083333333202	23623
198	49003	208.283333333162	30103
198	59824	259.483333333122	36583
198	70727	310.683333333082	43063
198	81548	361.883333333042	49543
198	92369	413.083333333002	56023
198	103190	464.283333332962	62503
198	114093	515.483333332922	68983
198	124914	566.683333332882	75463
198	135735	617.883333332842	81943
198	146556	669.083333332802	88423
198	157459	720.283333332762	94903
198	168280	771.483333332722	101383
198	179101	822.683333332682	107863
198	189922	873.883333332642	114343
198	200825	925.083333332602	120823
198	211646	976.283333332562	127303
199	4534	3.439999999988	3445
199	16585	54.686666666615	10745
199	27488	105.886666666575	17225
199	38309	157.086666666535	23705
199	49130	208.286666666495	30185
199	59951	259.486666666455	36665
199	70854	310.686666666415	43145
199	81675	361.886666666375	49625
199	92496	413.086666666335	56105
199	103317	464.286666666295	62585
199	114220	515.486666666255	69065
199	125041	566.686666666215	75545
199	135862	617.886666666175	82025
199	146683	669.086666666135	88505
199	157586	720.286666666095	94985
199	168407	771.486666666055	101465
199	179228	822.686666666015	107945
199	190049	873.886666665975	114425
199	200952	925.086666665935	120905
199	211773	976.286666665895	127385
200	4661	3.459999999988	3527
200	16712	54.689999999948	10827
200	27615	105.889999999908	17307
200	38436	157.089999999868	23787
200	49257	208.289999999828	30267
200	60078	259.489999999788	36747
200	70981	310.689999999748	43227
200	81802	361.889999999708	49707
200	92623	413.089999999668	56187
200	103444	464.289999999628	62667
200	114347	515.489999999588	69147
200	125168	566.689999999548	75627
200	135989	617.889999999508	82107
200	146810	669.089999999468	88587
200	157713	720.289999999428	95067
200	168534	771.489999999388	101547
200	179355	822.689999999348	108027
200	190176	873.889999999308	114507
200	201079	925.089999999268	120987
200	211900	976.289999999228	127467
201	4788	3.476666666654	3609
201	16839	54.693333333281	10909
201	27742	105.893333333241	17389
201	38563	157.093333333201	23869
201	49384	208.293333333161	30349
201	60205	259.493333333121	36829
201	71108	310.693333333081	43309
201	81929	361.893333333041	49789
201	92750	413.093333333001	56269
201	103571	464.293333332961	62749
201	114474	515.493333332921	69229
201	125295	566.693333332881	75709
201	136116	617.893333332841	82189
201	146937	669.093333332801	88669
201	157840	720.293333332761	95149
201	168661	771.493333332721	101629
201	179482	822.693333332681	108109
201	190303	873.893333332641	114589
201	201206	925.093333332601	121069
201	212027	976.293333332561	127549
202	4915	3.489999999987	3691
202	16966	54.696666666614	10991
202	27869	105.896666666574	17471
202	38690	157.096666666534	23951
202	49511	208.296666666494	30431
202	60332	259.496666666454	36911
202	71235	310.696666666414	43391
202	82056	361.896666666374	49871
202	92877	413.096666666334	56351
202	103698	464.296666666294	62831
202	114601	515.496666666254	69311
202	125422	566.696666666214	75791
202	136243	617.896666666174	82271
202	147064	669.096666666134	88751
202	157967	720.296666666094	95231
202	168788	771.496666666054	101711
202	179609	822.696666666014	108191
202	190430	873.896666665974	114671
202	201333	925.096666665934	121151
202	212154	976.296666665894	127631
203	5042	3.499999999987	1000
203	17093	54.699999999947	1000
203	27996	105.899999999907	1000
203	38817	157.099999999867	1000
203	49638	208.299999999827	1000
203	60459	259.499999999787	1000
203	71362	310.699999999747	1000
203	82183	361.899999999707	1000
203	93004	413.099999999667	1000
203	103825	464.299999999627	1000
203	114728	515.499999999587	1000
203	125549	566.699999999547	1000
203	136370	617.899999999507	1000
203	147191	669.099999999467	1000
203	158094	720.299999999427	1000
203	168915	771.499999999387	1000
203	179736	822.699999999347	1000
203	190557	873.899999999307	1000
203	201460	925.099999999267	1000
203	212281	976.299999999227	1000
