version 2
run General-0-20220216-23:24:13-19004
attr configname General
attr datetime 20220216-23:24:13
attr experiment General
attr inifile omnetpp.ini
attr iterationvars $traffic=5
attr iterationvars2 "$traffic=5, $repetition=0"
attr measurement $traffic=5
attr network BMACExampleNetwork
attr processid 19004
attr repetition 0
attr replication #0
attr resultdir results
attr runnumber 0
attr seedset 0
attr traffic 5

vector 16  BMACExampleNetwork.node[3].nic.mac  ""  ETV
vector 17  BMACExampleNetwork.node[3].nic.mac  ""  ETV
16	149	2.016667347136	0.19508546140989
16	307	4.033334694272	0.30509651389889
16	615	8.066669388544	0.31157501215756
16	935	12.100004082816	0.23629911572475
16	1093	14.116671429952	0.02325310644641
16	1401	18.150006124224	0.028556688305333
16	2187	28.233342859904	0.026789964522411
16	2503	32.266677554176	0.015294798445263
16	3605	46.383348984128	0.0842600496499
16	3925	50.4166836784	0.10672272796247
16	4075	52.433351025536	0.13994266857869
16	4683	60.50002041408	0.13071695244635
16	5133	66.550022455488	0.047983321148651
16	5283	68.566689802624	0.11967499606978
16	5433	70.58335714976	0.14811716831628
16	5587	72.600024496896	0.20230833718763
16	5737	74.616691844032	0.12933371102622
16	5887	76.633359191168	0.015053291469201
16	6037	78.650026538304	0.34113149822902
16	6337	82.683361232576	0.03147806807272
16	6491	84.700028579712	0.31140288690503
16	6641	86.716695926848	0.010484865573376
16	6791	88.733363273984	0.015475309586374
16	6941	90.75003062112	0.017603076181712
16	7091	92.766697968256	0.011841991784615
16	7395	96.800032662528	0.24442470324171
16	7545	98.816700009664	0.015089220404696
16	7695	100.8333673568	0.025312026795627
16	7845	102.850034703936	0.01335079858234
16	7995	104.866702051072	0.020284322966242
16	9049	118.983373481024	0.048382257038051
16	10261	135.116712258112	0.034644469216049
16	10411	137.133379605248	0.1402258616708
16	11165	147.216716340928	0.22723249188315
16	11315	149.233383688064	0.21202203203905
16	11465	151.2500510352	0.10206588263101
16	11615	153.266718382336	0.20665176322445
16	11765	155.283385729472	0.30348366591058
16	11919	157.300053076608	0.32381679352368
16	12069	159.316720423744	0.01436054079036
16	12219	161.33338777088	0.058189972360548
16	12369	163.350055118016	0.019001158707299
16	12519	165.366722465152	0.01132255864465
16	12669	167.383389812288	0.014150326862079
16	12823	169.400057159424	0.014404098609383
16	12973	171.41672450656	0.019788900881341
16	13123	173.433391853696	0.01102837517301
16	13273	175.450059200832	0.017511839475421
16	13573	179.483393895104	0.037643254922347
16	13731	181.50006124224	0.021211561696657
16	14031	185.533395936512	0.015918628850761
16	14181	187.550063283648	0.013167708179334
16	14331	189.566730630784	0.020584041092662
16	14481	191.58339797792	0.010416197140499
16	16593	219.816740837824	0.18807547859858
16	16743	221.83340818496	0.23800489545179
16	17497	231.91674492064	0.28825819670209
16	17647	233.933412267776	0.22190601338573
16	17797	235.950079614912	0.018003728874423
16	17947	237.966746962048	0.085269729507943
16	18097	239.983414309184	0.014869429993682
16	18255	242.00008165632	0.094898914857599
16	18405	244.016749003456	0.014769820499721
16	18555	246.033416350592	0.26957261526862
16	18705	248.050083697728	0.063452804439534
16	18855	250.066751044864	0.012168389303821
16	19005	252.083418392	0.0090944390625402
16	19159	254.100085739136	0.012587928619186
16	19309	256.116753086272	0.037515823010302
16	19459	258.133420433408	0.012908364469716
16	19609	260.150087780544	0.019102543780736
16	19759	262.16675512768	0.026673029792247
16	20063	266.200089821952	0.017951142837075
16	20213	268.216757169088	0.017951977374647
16	20363	270.233424516224	0.016902018887941
16	20513	272.25009186336	0.018404269559397
16	20663	274.266759210496	0.015259679824933
16	20813	276.283426557632	0.017767937913265
16	21117	280.316761251904	0.015966499793467
16	21417	284.350095946176	0.018329151314646
16	21871	290.400097987584	0.029984358431818
16	22021	292.41676533472	0.019481743349021
16	23379	310.566771458944	0.24069909813689
16	23833	316.616773500352	0.15998741833708
16	23983	318.633440847488	0.073270687643636
16	24133	320.650108194624	0.032117102278368
16	24283	322.66677554176	0.022411732575076
16	24433	324.683442888896	0.016293730097877
16	24587	326.700110236032	0.02231496425317
16	24737	328.716777583168	0.016072880489058
16	24887	330.733444930304	0.018109048964465
16	25037	332.75011227744	0.0610182562119
16	25187	334.766779624576	0.011380803876944
16	25337	336.783446971712	0.01301077608427
16	25491	338.800114318848	0.024155782468412
16	25641	340.816781665984	0.027837541102833
16	25791	342.83344901312	0.039632725209022
16	25941	344.850116360256	0.016786714712778
16	26091	346.866783707392	0.017649401784432
16	26241	348.883451054528	0.013228706857566
16	26395	350.900118401664	0.01371146874974
16	26545	352.9167857488	0.018666553682048
16	26845	356.950120443072	0.0091440406725579
16	27145	360.983455137344	0.024516113584325
16	27303	363.00012248448	0.01745348008327
16	27453	365.016789831616	0.017278573408676
16	27603	367.033457178752	0.02668535959506
16	27753	369.050124525888	0.05016647291699
16	28357	377.116793914432	0.1748466209678
16	28657	381.150128608704	0.04051606945876
16	29711	395.266800038656	0.1262965942082
16	29861	397.283467385792	0.090005326095149
16	30465	405.350136774336	0.10920512265391
16	30765	409.383471468608	0.02583176272132
16	30919	411.400138815744	0.0068661721609956
16	31069	413.41680616288	0.021690565889057
16	31219	415.433473510016	0.015888341493514
16	31369	417.450140857152	0.0027695667063661
16	31519	419.466808204288	0.014953258845782
16	31669	421.483475551424	0.23714247816799
16	31827	423.50014289856	0.028480576226794
16	31977	425.516810245696	0.018035053840307
16	32127	427.533477592832	0.011962085451122
16	32277	429.550144939968	0.019857358243138
16	32427	431.566812287104	0.017569848767519
16	32577	433.58347963424	0.016005267779005
16	32731	435.600146981376	0.015139156014799
16	32881	437.616814328512	0.022392660346145
16	33031	439.633481675648	0.01934748462378
16	33181	441.650149022784	0.0075546798025685
16	33331	443.66681636992	0.015329816499432
16	33481	445.683483717056	0.14844345460144
16	33635	447.700151064192	0.011791769708256
16	33785	449.716818411328	0.18510367805206
16	33935	451.733485758464	0.048270633896601
16	34085	453.7501531056	0.19688045781885
16	34235	455.766820452736	0.039286458301856
16	36193	481.983495965504	0.10197191173932
16	36501	486.016830659776	0.006491344615756
16	36951	492.066832701184	0.019236008956767
16	37101	494.08350004832	0.0096386745046517
16	37255	496.100167395456	0.0087922222004221
16	37405	498.116834742592	0.019228300415495
16	37555	500.133502089728	0.015274887157792
16	37705	502.150169436864	0.0061535085626162
16	37855	504.166836784	0.020074551688333
16	38005	506.183504131136	0.012701355498044
16	38159	508.200171478272	0.045684060854653
16	38309	510.216838825408	0.021463143502005
16	38459	512.233506172544	0.018354834866884
16	38609	514.25017351968	0.31092720407453
16	38759	516.266840866816	0.019777399247245
16	39063	520.300175561088	0.00858548001084
16	39213	522.316842908224	0.023710200288961
16	39363	524.33351025536	0.021507443728217
16	39663	528.366844949632	0.026575828924554
16	39813	530.383512296768	0.056120459907558
16	39967	532.400179643904	0.12930535911781
16	40117	534.41684699104	0.15237089698132
16	40267	536.433514338176	0.23015053165428
16	40417	538.450181685312	0.12863639120712
16	40567	540.466849032448	0.014839216297974
16	40717	542.483516379584	0.34001085856935
16	41175	548.533518420992	0.050512039381667
16	42833	570.716859239488	0.0057959688302668
16	42983	572.733526586624	0.29023992610074
16	43283	576.766861280896	0.022669761906143
16	43433	578.783528628032	0.01272767568283
16	43587	580.800195975168	0.018830787871026
16	43737	582.816863322304	0.019862583140358
16	43887	584.83353066944	0.01937697571029
16	44037	586.850198016576	0.023838481175327
16	44187	588.866865363712	0.019713338937281
16	44337	590.883532710848	0.31073410584992
16	44491	592.900200057984	0.021365213435479
16	44641	594.91686740512	0.016868993989638
16	44791	596.933534752256	0.016618853366661
16	44941	598.950202099392	0.017951109515895
16	45091	600.966869446528	0.021927935668146
16	45241	602.983536793664	0.33647178392528
16	45399	605.0002041408	0.042895799522787
16	45549	607.016871487936	0.3338358986668
16	45699	609.033538835072	0.12778650147427
16	45849	611.050206182208	0.13520627034438
16	45999	613.066873529344	0.2264879215854
16	46149	615.08354087648	0.23820939813985
16	46453	619.116875570752	0.026964980837498
16	46903	625.16687761216	0.023235586403616
16	47207	629.200212306432	0.040468959738207
16	47507	633.233547000704	0.021200962820789
16	47957	639.283549042112	0.059698465880004
16	48111	641.300216389248	0.21553644576197
16	49465	659.450222513472	0.26747070626092
16	49615	661.466889860608	0.019562005127949
16	49765	663.483557207744	0.021886838066658
16	49923	665.50022455488	0.025889690002959
16	50073	667.516891902016	0.23891442280915
16	50223	669.533559249152	0.27931935104304
16	50373	671.550226596288	0.022999996254463
16	50523	673.566893943424	0.018553935208392
16	50673	675.58356129056	0.014411587289352
16	50827	677.600228637696	0.021823598079377
16	50977	679.616895984832	0.19642356756005
16	51277	683.650230679104	0.19228319538343
16	51427	685.66689802624	0.016577796483124
16	51577	687.683565373376	0.020365605819233
16	51731	689.700232720512	0.2154541231362
16	51881	691.716900067648	0.30603560037551
16	52031	693.733567414784	0.24138278020279
16	52181	695.75023476192	0.019576436083269
16	52331	697.766902109056	0.09557648123898
16	52481	699.783569456192	0.015935142869048
16	52635	701.800236803328	0.099349374863731
16	52935	705.8335714976	0.021524523816199
16	53085	707.850238844736	0.022340114979442
16	53235	709.866906191872	0.02008731587904
16	53385	711.883573539008	0.02699549282085
16	53539	713.900240886144	0.025002229022306
16	54447	726.00024496896	0.0378671581038
16	54597	728.016912316096	0.05567471328789
16	55501	740.116916398912	0.062033087104141
16	55651	742.133583746048	0.23380382940008
16	55801	744.150251093184	0.0246541387712
16	55951	746.16691844032	0.018523550501955
16	56101	748.183585787456	0.022157291723093
16	56255	750.200253134592	0.018284124631447
16	56555	754.233587828864	0.068413202319074
16	56705	756.250255176	0.32477496710846
16	56855	758.266922523136	0.29634869086805
16	57005	760.283589870272	0.2688313125359
16	57159	762.300257217408	0.30540634815616
16	57309	764.316924564544	0.13791735615559
16	57609	768.350259258816	0.042975838937106
16	57759	770.366926605952	0.1939342931353
16	57909	772.383593953088	0.087601488602242
16	58063	774.400261300224	0.055557297591061
16	58213	776.41692864736	0.2007550442429
16	58363	778.433595994496	0.01917132304899
16	58663	782.466930688768	0.029582145897638
16	58813	784.483598035904	0.016847427595208
16	58971	786.50026538304	0.023312040875152
16	59121	788.516932730176	0.016743122331894
16	59421	792.550267424448	0.02537066234987
16	59571	794.566934771584	0.025510325233523
16	59721	796.58360211872	0.021985352216903
16	59875	798.600269465856	0.018064864162724
16	60625	808.683606201536	0.13571466028078
16	61983	826.83361232576	0.050498337094226
16	62133	828.850279672896	0.021958629211914
16	62283	830.866947020032	0.016228966887458
16	62433	832.883614367168	0.26439471520189
16	62587	834.900281714304	0.2956258524454
16	62737	836.91694906144	0.19449595111721
16	62887	838.933616408576	0.29664651210283
16	63037	840.950283755712	0.044519490188931
16	63337	844.983618449984	0.037108076474282
16	63495	847.00028579712	0.18480556544509
16	63645	849.016953144256	0.029905108322143
16	63795	851.033620491392	0.05910317350597
16	63945	853.050287838528	0.028028922604732
16	64095	855.066955185664	0.012173837837331
16	64245	857.0836225328	0.020891843709528
16	64399	859.100289879936	0.031987274296483
16	64549	861.116957227072	0.013296937567588
16	64699	863.133624574208	0.012369997620537
16	64849	865.150291921344	0.018612175291058
16	64999	867.16695926848	0.02765678092279
16	65149	869.183626615616	0.017202477629189
16	65303	871.200293962752	0.020849979242997
16	65453	873.216961309888	0.010761112510116
16	65603	875.233628657024	0.013536580246065
16	65753	877.25029600416	0.032333744270716
16	66053	881.283630698432	0.23326709290474
16	66207	883.300298045568	0.014846787123532
16	66357	885.316965392704	0.022109789320416
16	66507	887.33363273984	0.066941251567625
16	66657	889.350300086976	0.25696919192263
16	68619	915.566975599744	0.033059036423028
16	68769	917.58364294688	0.032043089226184
16	68923	919.600310294016	0.32013918927716
16	69073	921.616977641152	0.042051179479762
16	69373	925.650312335424	0.023736098891309
16	69673	929.683647029696	0.024096432255508
16	69827	931.700314376832	0.012299836768325
16	69977	933.716981723968	0.021693837677154
16	70127	935.733649071104	0.018841716003354
16	70277	937.75031641824	0.01471788870824
16	70427	939.766983765376	0.31958507408123
16	70577	941.783651112512	0.23900380722077
16	70731	943.800318459648	0.019221252375084
16	70881	945.816985806784	0.020208658518326
16	71031	947.83365315392	0.012802296965055
16	71181	949.850320501056	0.016326471560794
16	71331	951.866987848192	0.025817427449312
16	71481	953.883655195328	0.017907579465069
16	71635	955.900322542464	0.022114417612658
16	71785	957.9169898896	0.019233910318123
16	71935	959.933657236736	0.014908383372241
16	72085	961.950324583872	0.013886830401554
16	72235	963.966991931008	0.019057108176484
16	72543	968.00032662528	0.021537440771262
16	72843	972.033661319552	0.084741995746887
16	72993	974.050328666688	0.31338206132548
16	73143	976.066996013824	0.07908590662682
16	73293	978.08366336096	0.12731430326464
16	75101	1002.283671526592	0.33748233566177
16	75405	1006.317006220864	0.019372247237502
16	75705	1010.350340915136	0.019722502761618
16	75855	1012.367008262272	0.016814298818946
16	76005	1014.383675609408	0.024767003018476
16	76159	1016.400342956544	0.019858278957202
16	76309	1018.41701030368	0.015859162388607
16	76459	1020.433677650816	0.017671490540098
16	76609	1022.450344997952	0.022390035675572
16	76909	1026.483679692224	0.0054417747053266
16	77067	1028.50034703936	0.018916795937179
16	77367	1032.533681733632	0.016489885894224
16	77517	1034.550349080768	0.015710042917459
16	77817	1038.58368377504	0.018318891805111
16	77971	1040.600351122176	0.023005144354051
16	78121	1042.617018469312	0.015183919707555
16	78271	1044.633685816448	0.012682856731243
16	78421	1046.650353163584	0.028360931120815
16	78571	1048.66702051072	0.020613413858949
16	78721	1050.683687857856	0.31105304393812
16	79025	1054.717022552128	0.026651895304152
16	79175	1056.733689899264	0.08363477333644
16	79325	1058.7503572464	0.26791795532831
16	79475	1060.767024593536	0.085420110650116
16	81591	1089.00036745344	0.046584891828202
16	81741	1091.017034800576	0.017226626457719
16	81891	1093.033702147712	0.023695988205561
16	82041	1095.050369494848	0.019953607705018
16	82191	1097.067036841984	0.017426102307961
16	82341	1099.08370418912	0.023935019085281
16	82645	1103.117038883392	0.016527164888803
16	82795	1105.133706230528	0.022939098414408
16	82945	1107.150373577664	0.023620940033548
16	83095	1109.1670409248	0.028987897928128
16	83245	1111.183708271936	0.015902798671469
16	83399	1113.200375619072	0.02152739174897
16	83549	1115.217042966208	0.017621567074207
16	83699	1117.233710313344	0.15857449159844
16	83849	1119.25037766048	0.021436510741541
16	83999	1121.267045007616	0.022062393691891
16	84149	1123.283712354752	0.023826066783226
16	84303	1125.300379701888	0.014250840310545
16	84453	1127.317047049024	0.026604795440541
16	84753	1131.350381743296	0.019190767514134
16	84903	1133.367049090432	0.023832440561006
16	85207	1137.400383784704	0.015243372738135
16	85357	1139.41705113184	0.024938776937714
16	85657	1143.450385826112	0.14594198639556
16	85807	1145.467053173248	0.20678750502418
16	85957	1147.483720520384	0.18644711622902
16	86565	1155.550389908928	0.032023846259134
16	86865	1159.5837246032	0.2134334160625
16	87923	1173.700396033152	0.020517158149967
16	88073	1175.717063380288	0.26660221050012
16	88223	1177.733730727424	0.023408428879321
16	88373	1179.75039807456	0.010328027241728
16	88523	1181.767065421696	0.017333791424815
16	88673	1183.783732768832	0.017853394196486
16	88827	1185.800400115968	0.02277923161828
16	88977	1187.817067463104	0.011644404627448
16	89127	1189.83373481024	0.022322953577401
16	89277	1191.850402157376	0.03065556346351
16	89427	1193.867069504512	0.012706723159329
16	89577	1195.883736851648	0.29005206957062
16	89731	1197.900404198784	0.020969567539851
16	89881	1199.91707154592	0.019209404596994
16	90031	1201.933738893056	0.016629704644922
16	90181	1203.950406240192	0.020130789923953
16	90331	1205.967073587328	0.020112249523991
16	90481	1207.983740934464	0.023895857266404
16	90639	1210.0004082816	0.01174935445897
16	90939	1214.033742975872	0.024064842622896
16	91089	1216.050410323008	0.023368215925564
16	91239	1218.067077670144	0.15238797018139
16	91389	1220.08374501728	0.19625695869964
16	91543	1222.100412364416	0.29727372454271
16	91693	1224.117079711552	0.20547939347432
16	91843	1226.133747058688	0.35218971091729
16	92143	1230.16708175296	0.22031499771235
16	92447	1234.200416447232	0.17605134131459
16	92747	1238.233751141504	0.098224939675903
16	93197	1244.283753182912	0.055847300754011
16	94855	1266.467094001408	0.015350670276354
16	95005	1268.483761348544	0.015227556888837
16	95163	1270.50042869568	0.025774477539553
16	95313	1272.517096042816	0.29021588059407
16	95463	1274.533763389952	0.020121378223806
16	95763	1278.567098084224	0.013108157911659
16	95913	1280.58376543136	0.01562605832713
16	96067	1282.600432778496	0.022276888923642
16	96217	1284.617100125632	0.014759211079291
16	96367	1286.633767472768	0.017091258003646
16	96517	1288.650434819904	0.012194192155671
16	96667	1290.66710216704	0.01703294515863
16	96817	1292.683769514176	0.016204134951897
16	96971	1294.700436861312	0.15599267043353
16	97121	1296.717104208448	0.17573046592526
16	97271	1298.733771555584	0.29487117867557
16	97571	1302.767106249856	0.33415100010176
16	97721	1304.783773596992	0.23445911869581
16	97875	1306.800440944128	0.26606020207156
16	98025	1308.817108291264	0.17413692506125
16	98175	1310.8337756384	0.17420806864929
16	98625	1316.883777679808	0.22545197899272
16	99229	1324.950447068352	0.11540424373811
16	100137	1337.050451151168	0.022263237052371
16	100287	1339.067118498304	0.014497624570033
16	101191	1351.16712258112	0.0022370420797642
16	101341	1353.183789928256	0.020058744000509
16	101495	1355.200457275392	0.021871009391162
16	101795	1359.233791969664	0.015642484952317
16	101945	1361.2504593168	0.026972461489428
16	102245	1365.283794011072	0.23690968540001
16	102399	1367.300461358208	0.024961368182413
16	102549	1369.317128705344	0.144008150198
16	102699	1371.33379605248	0.013961833103374
16	102849	1373.350463399616	0.17687868712412
16	102999	1375.367130746752	0.054043501042784
16	103149	1377.383798093888	0.30444654081894
16	103303	1379.400465441024	0.026922930579216
16	103453	1381.41713278816	0.039149728190748
16	103603	1383.433800135296	0.32161478222694
16	104053	1389.483802176704	0.032744599280929
16	104211	1391.50046952384	0.016251573239324
16	104361	1393.517136870976	0.30723863716297
16	104511	1395.533804218112	0.065130265434629
16	104661	1397.550471565248	0.2598015624956
16	104811	1399.567138912384	0.11430653980592
16	105565	1409.650475648064	0.13223924226092
16	107673	1437.883818507968	0.050789404747627
16	107827	1439.900485855104	0.17370752535633
16	107977	1441.91715320224	0.010127295331666
16	108127	1443.933820549376	0.015095163950178
16	108277	1445.950487896512	0.14866949237366
16	108577	1449.983822590784	0.18653630256149
16	108735	1452.00048993792	0.055304056463027
16	108885	1454.017157285056	0.3225090570838
16	109035	1456.033824632192	0.028860849857366
16	109185	1458.050491979328	0.15596272057667
16	109335	1460.067159326464	0.32108734291324
16	109485	1462.0838266736	0.21095599126373
16	109789	1466.117161367872	0.32536801794382
16	110089	1470.150496062144	0.054843870105624
16	110239	1472.16716340928	0.011963129639564
16	110389	1474.183830756416	0.011650015792593
16	110543	1476.200498103552	0.028141189434089
16	110993	1482.25050014496	0.035360384348228
16	111143	1484.267167492096	0.059465998856159
16	111293	1486.283834839232	0.056266035209444
16	111897	1494.350504227776	0.010278083452931
16	112197	1498.383838922048	0.18557095506275
16	112801	1506.450508310592	0.054434994197446
16	114009	1522.58384708768	0.027266538397058
16	114313	1526.617181781952	0.019509622572469
16	114463	1528.633849129088	0.053561726555033
16	114613	1530.650516476224	0.25654069253974
16	114763	1532.66718382336	0.028050670685376
16	114913	1534.683851170496	0.024889623474806
16	115067	1536.700518517632	0.10748353359044
16	115217	1538.717185864768	0.21143318011801
16	115367	1540.733853211904	0.25593130450181
16	115517	1542.75052055904	0.3237953630687
16	115667	1544.767187906176	0.018116779702069
16	115817	1546.783855253312	0.054760479159553
16	115971	1548.800522600448	0.014200911379212
16	116121	1550.817189947584	0.011689718783031
16	116271	1552.83385729472	0.017159104410943
16	116421	1554.850524641856	0.018745310728656
16	116571	1556.867191988992	0.025570819223671
16	116721	1558.883859336128	0.031494957986118
16	116875	1560.900526683264	0.016621989882288
16	117025	1562.9171940304	0.024004709013887
16	117325	1566.950528724672	0.12489778694072
16	117475	1568.967196071808	0.056278281090698
16	117625	1570.983863418944	0.22186411380679
16	117933	1575.017198113216	0.13738703534566
16	118687	1585.100534848896	0.13149549654669
16	119891	1601.233873625984	0.021923331527311
16	120945	1615.350545055936	0.24145442633278
16	121095	1617.367212403072	0.047134265867078
16	121399	1621.400547097344	0.087893451308449
16	121699	1625.433881791616	0.20030130437168
16	121849	1627.450549138752	0.018372390846801
16	121999	1629.467216485888	0.023030738473516
16	122149	1631.483883833024	0.012144112296399
16	122307	1633.50055118016	0.014761521125306
16	122457	1635.517218527296	0.025919156674706
16	122607	1637.533885874432	0.021650307979369
16	122757	1639.550553221568	0.022850137570746
16	123057	1643.58388791584	0.029110182157301
16	123211	1645.600555262976	0.017204445879535
16	123361	1647.617222610112	0.018275222975992
16	123511	1649.633889957248	0.27076984783768
16	123661	1651.650557304384	0.12410050973291
16	123811	1653.66722465152	0.16604265878926
16	123961	1655.683891998656	0.22055790264416
16	124115	1657.700559345792	0.056956396200582
16	124265	1659.717226692928	0.13624242921199
16	124415	1661.733894040064	0.15654146015846
16	124715	1665.767228734336	0.031729887898825
16	125169	1671.817230775744	0.0836775620135
16	125319	1673.83389812288	0.26284286886283
16	126223	1685.933902205696	0.26966374553829
16	126373	1687.950569552832	0.30218015439516
16	127281	1700.050573635648	0.050933835526659
16	127431	1702.067240982784	0.19755564941378
16	127581	1704.08390832992	0.01897133935637
16	127885	1708.117243024192	0.028177070914535
16	128035	1710.133910371328	0.020274787687447
16	128335	1714.1672450656	0.010759668257387
16	128485	1716.183912412736	0.012034644557508
16	128639	1718.200579759872	0.018775205115903
16	128789	1720.217247107008	0.014415552502344
16	128939	1722.233914454144	0.013240277630347
16	129089	1724.25058180128	0.023106196709406
16	129239	1726.267249148416	0.023672528043368
16	129389	1728.283916495552	0.022415074083789
16	129543	1730.300583842688	0.2339470639318
16	129693	1732.317251189824	0.028229968790411
16	129843	1734.33391853696	0.0044012152217317
16	129993	1736.350585884096	0.29521562881148
16	130143	1738.367253231232	0.012232375970266
16	130447	1742.400587925504	0.14044778110492
16	130747	1746.433922619776	0.0640122666699
16	130897	1748.450589966912	0.071985379498501
16	131047	1750.467257314048	0.022332971782128
16	131505	1756.517259355456	0.076672589360844
16	131655	1758.533926702592	0.22798520689016
16	133313	1780.717267521088	0.054410390906708
16	133463	1782.733934868224	0.021695804820555
16	133613	1784.75060221536	0.017812076991748
16	133763	1786.767269562496	0.024032433689731
16	133913	1788.783936909632	0.021091762861771
16	134067	1790.800604256768	0.27947593552546
16	134217	1792.817271603904	0.063801458890392
16	134367	1794.83393895104	0.021120126387037
16	134517	1796.850606298176	0.014389505209577
16	134667	1798.867273645312	0.015720205552783
16	134817	1800.883940992448	0.025543659942443
16	134971	1802.900608339584	0.0093298337470836
16	135121	1804.91727568672	0.019643012190456
16	135271	1806.933943033856	0.029433229358322
16	135421	1808.950610380992	0.013024178453229
16	135571	1810.967277728128	0.018371430597403
16	135721	1812.983945075264	0.020076823957062
16	135879	1815.0006124224	0.015109820158791
16	136029	1817.017279769536	0.02013613936252
16	136179	1819.033947116672	0.0208982213952
16	136479	1823.067281810944	0.017750948475773
16	136629	1825.08394915808	0.014051509662502
16	136783	1827.100616505216	0.0070530123584815
16	136933	1829.117283852352	0.018383461063799
16	137083	1831.133951199488	0.029601557076688
16	137383	1835.16728589376	0.32031868100272
16	137533	1837.183953240896	0.33160978081452
16	137687	1839.200620588032	0.25888460796979
16	137837	1841.217287935168	0.18226169383117
16	139645	1865.4172961008	0.11105181512152
16	139945	1869.450630795072	0.021486056509957
16	140095	1871.467298142208	0.02065951413273
16	140245	1873.483965489344	0.020580687706265
16	140403	1875.50063283648	0.019986419213447
16	140553	1877.517300183616	0.062066083651722
16	140703	1879.533967530752	0.014629448256491
16	140853	1881.550634877888	0.011361299601806
16	141003	1883.567302225024	0.021723020135214
16	141153	1885.58396957216	0.022512876068127
16	141307	1887.600636919296	0.017882214387038
16	141457	1889.617304266432	0.02034997607005
16	141607	1891.633971613568	0.017641829563434
16	141757	1893.650638960704	0.011930408999405
16	141907	1895.66730630784	0.017033008140134
16	142057	1897.683973654976	0.23651919071848
16	142211	1899.700641002112	0.019538536420469
16	142361	1901.717308349248	0.013394057661475
16	142511	1903.733975696384	0.017041684870828
16	142661	1905.75064304352	0.024169280185942
16	142811	1907.767310390656	0.017672129980843
16	142961	1909.783977737792	0.02530450351119
16	143115	1911.800645084928	0.32257623267296
16	143265	1913.817312432064	0.29645056144564
16	143415	1915.8339797792	0.26067488670619
16	143565	1917.850647126336	0.31006836034966
16	144169	1925.91731651488	0.16534017275621
16	144319	1927.933983862016	0.21882001967397
16	144469	1929.950651209152	0.064275576202459
16	146581	1958.183994069056	0.020499372181799
16	146735	1960.200661416192	0.23621731769124
16	147035	1964.233996110464	0.0090898080042849
16	147185	1966.2506634576	0.2948153687812
16	147335	1968.267330804736	0.017991427241957
16	147485	1970.283998151872	0.022074417831499
16	147639	1972.300665499008	0.013096316037208
16	147789	1974.317332846144	0.020685986194741
16	147939	1976.33400019328	0.024062844151376
16	148239	1980.367334887552	0.23538120943109
16	148389	1982.384002234688	0.019991546116355
16	148543	1984.400669581824	0.025790262101229
16	148693	1986.41733692896	0.015312618860989
16	148843	1988.434004276096	0.15603358238402
16	148993	1990.450671623232	0.16539892422683
16	149143	1992.467338970368	0.29606386832508
16	149451	1996.50067366464	0.035132925080894
16	149751	2000.534008358912	0.043981507919834
16	149901	2002.550675706048	0.19088972718003
16	150051	2004.567343053184	0.032221019068053
16	150355	2008.600677747456	0.024844961278941
16	150505	2010.617345094592	0.084938771262812
16	150655	2012.634012441728	0.26411482213713
16	150805	2014.650679788864	0.093321077704673
16	152009	2030.784018565952	0.022737842291368
16	152913	2042.884022648768	0.019456521341681
16	153067	2044.900689995904	0.015490062919958
16	153217	2046.91735734304	0.0083678814398502
16	153367	2048.934024690176	0.017085871415984
16	153517	2050.950692037312	0.015976098185224
16	153667	2052.967359384448	0.08783056866931
16	153975	2057.00069407872	0.013674784388018
16	154125	2059.017361425856	0.015069621607105
16	154275	2061.034028772992	0.02103653628151
16	154575	2065.067363467264	0.29176383167578
16	154725	2067.0840308144	0.16833535570644
16	154879	2069.100698161536	0.054102692478486
16	155179	2073.134032855808	0.15309621086638
16	155329	2075.150700202944	0.23190464875407
16	155479	2077.16736755008	0.12340370495424
16	155629	2079.184034897216	0.18018316641112
16	155783	2081.200702244352	0.1994166529575
16	155933	2083.217369591488	0.3067398824525
16	156083	2085.234036938624	0.11049298623944
16	156233	2087.25070428576	0.30768594900087
16	156383	2089.267371632896	0.0081095705571988
16	156533	2091.284038980032	0.010626642778253
16	156687	2093.300706327168	0.029839830348803
16	156987	2097.33404102144	0.032305371193126
16	157137	2099.350708368576	0.063746693315929
16	157287	2101.367375715712	0.22098938388503
16	159249	2127.58405122848	0.021986609366401
16	159403	2129.600718575616	0.062334271031061
16	159553	2131.617385922752	0.022712407584806
16	159703	2133.634053269888	0.017302972331684
16	159853	2135.650720617024	0.014843815872418
16	160003	2137.66738796416	0.023736328655845
16	160153	2139.684055311296	0.023596508299576
16	160307	2141.700722658432	0.29324495851236
16	160457	2143.717390005568	0.025899102412959
16	160607	2145.734057352704	0.053187968712469
16	160757	2147.75072469984	0.12479475370912
16	160907	2149.767392046976	0.14871687914556
16	161057	2151.784059394112	0.22434463780185
16	161211	2153.800726741248	0.12785848690059
16	161361	2155.817394088384	0.15950982736796
16	161511	2157.83406143552	0.34133044930939
16	161811	2161.867396129792	0.023326984420151
16	161961	2163.884063476928	0.30895877221104
16	162115	2165.900730824064	0.022480966382296
16	162265	2167.9173981712	0.01828921588517
16	162565	2171.950732865472	0.021675876896393
16	162715	2173.967400212608	0.027667385359006
16	162865	2175.984067559744	0.015836326695395
16	163023	2178.00073490688	0.022416286969608