version 2
run General-0-20220216-15:49:57-4008
attr configname General
attr datetime 20220216-15:49:57
attr experiment General
attr inifile omnetpp.ini
attr iterationvars $traffic=5
attr iterationvars2 "$traffic=5, $repetition=0"
attr measurement $traffic=5
attr network BMACExampleNetwork
attr processid 4008
attr repetition 0
attr replication #0
attr resultdir results
attr runnumber 0
attr seedset 0
attr traffic 5

vector 16  BMACExampleNetwork.node[3].nic.mac  ""  ETV
vector 17  BMACExampleNetwork.node[3].nic.mac  ""  ETV
16	149	2.016667347136	0.23498364892328
16	331	4.533334694272	0.29465438989857
16	513	7.050002041408	0.11516337977057
16	695	9.566669388544	0.07023719185219
16	877	12.08333673568	0.094464637931791
16	1067	14.600004082816	0.11675903512984
16	1245	17.116671429952	0.021902553445677
16	1431	19.633338777088	0.095432706099511
16	1609	22.150006124224	0.027120182269001
16	1795	24.66667347136	0.21519931732429
16	1973	27.183340818496	0.10510748766656
16	2163	29.700008165632	0.50792308199851
16	2341	32.216675512768	0.038174509540085
16	2527	34.733342859904	0.090820877145486
16	2705	37.25001020704	0.026477578106989
16	2891	39.766677554176	0.41005051943187
16	3069	42.283344901312	0.1614848042303
16	3259	44.800012248448	0.31873063075603
16	3437	47.316679595584	0.21642030117197
16	3623	49.83334694272	0.048950200893335
16	3801	52.350014289856	0.11909572586481
16	3975	54.866681636992	0.019259446430469
16	4149	57.383348984128	0.021157489611806
16	4327	59.900016331264	0.26587118888065
16	4501	62.4166836784	0.45055117240117
16	4675	64.933351025536	0.21496966320645
16	4849	67.450018372672	0.30817679339872
16	5023	69.966685719808	0.028426062053154
16	5197	72.483353066944	0.0086184452989535
16	5379	75.00002041408	0.092965757893113
16	5553	77.516687761216	0.01052767756647
16	5727	80.033355108352	0.054522690548413
16	5901	82.550022455488	0.015072165158625
16	6075	85.066689802624	0.038407919425128
16	6249	87.58335714976	0.016290259291106
16	6427	90.100024496896	0.11591721868836
16	6601	92.616691844032	0.022537891716547
16	6775	95.133359191168	0.17923854910316
16	6949	97.650026538304	0.23108616715533
16	7123	100.16669388544	0.050053665046716
16	7297	102.683361232576	0.094462816828312
16	7475	105.200028579712	0.28869448485727
16	7649	107.716695926848	0.24630619552429
16	7823	110.233363273984	0.046187574459846
16	7997	112.75003062112	0.025695788920823
16	8171	115.266697968256	0.059369564387035
16	8345	117.783365315392	0.13242339614838
16	8523	120.300032662528	0.16868119534629
16	8697	122.816700009664	0.18649061325306
16	8871	125.3333673568	0.2093032837325
16	9045	127.850034703936	0.43064953515307
16	9219	130.366702051072	0.025255799495527
16	9393	132.883369398208	0.086249527108627
16	9571	135.400036745344	0.022235302542962
16	9745	137.91670409248	0.0098221180515859
16	9919	140.433371439616	0.126413433259
16	10093	142.950038786752	0.31667432684721
16	10267	145.466706133888	0.13811685051728
16	10441	147.983373481024	0.031175691363413
16	10623	150.50004082816	0.028710599107459
16	10797	153.016708175296	0.24256248291757
16	10971	155.533375522432	0.28663040474599
16	11145	158.050042869568	0.12138922431382
16	11319	160.566710216704	0.44457120965716
16	11493	163.08337756384	0.1145465583158
16	11671	165.600044910976	0.35568350418853
16	11845	168.116712258112	0.019098450090948
16	12019	170.633379605248	0.23758838189031
16	12193	173.150046952384	0.014338922058462
16	12367	175.66671429952	0.10602071330101
16	12541	178.183381646656	0.044191319604295
16	12719	180.700048993792	0.02346586341964
16	12893	183.216716340928	0.29203493920557
16	13067	185.733383688064	0.10040134723142
16	13241	188.2500510352	0.30326134749719
16	13415	190.766718382336	0.17526493958381
16	13589	193.283385729472	0.070714016770662
16	13767	195.800053076608	0.098820921763498
16	13941	198.316720423744	0.2255027315087
16	14115	200.83338777088	0.31778760205679
16	14289	203.350055118016	0.023314522133415
16	14463	205.866722465152	0.25561468691886
16	14637	208.383389812288	0.30931109926417
16	14815	210.900057159424	0.1408778858434
16	14989	213.41672450656	0.21203191615813
16	15163	215.933391853696	0.068876578029064
16	15337	218.450059200832	0.0082305451677747
16	15511	220.966726547968	0.092721841722567
16	15685	223.483393895104	0.014443115247028
16	15867	226.00006124224	0.097227387336759
16	16041	228.516728589376	0.40385172345844
16	16215	231.033395936512	0.23826617542773
16	16389	233.550063283648	0.030990429744811
16	16563	236.066730630784	0.099243184053367
16	16737	238.58339797792	0.039198540122179
16	16915	241.100065325056	0.020004925387131
16	17089	243.616732672192	0.015901036873609
16	17263	246.133400019328	0.020500420854333
16	17437	248.650067366464	0.016584135691644
16	17611	251.1667347136	0.026637964622814
16	17785	253.683402060736	0.026293921909898
16	17963	256.200069407872	0.013208450615473
16	18137	258.716736755008	0.099426197090785
16	18311	261.233404102144	0.14461737941787
16	18485	263.75007144928	0.11087323967063
16	18659	266.266738796416	0.20947222208271
16	18833	268.783406143552	0.37857066855416
16	19011	271.300073490688	0.091574211748258
16	19185	273.816740837824	0.21397246826609
16	19359	276.33340818496	0.020821397175892
16	19533	278.850075532096	0.010381471864772
16	19707	281.366742879232	0.21218186746429
16	19881	283.883410226368	0.30368057588263
16	20059	286.400077573504	0.016719439597393
16	20233	288.91674492064	0.025314326227975
16	20407	291.433412267776	0.010765746164167
16	20581	293.950079614912	0.22270972623299
16	20755	296.466746962048	0.024414640894537
16	20929	298.983414309184	0.20194376088281
16	21111	301.50008165632	0.28319449844019
16	21285	304.016749003456	0.027459033793351
16	21459	306.533416350592	0.033309507803255
16	21633	309.050083697728	0.2269292370766
16	21807	311.566751044864	0.2086028633581
16	21981	314.083418392	0.23572117386034
16	22159	316.600085739136	0.32807512963869
16	22333	319.116753086272	0.31261235937767
16	22507	321.633420433408	0.032193467386659
16	22681	324.150087780544	0.030169414710208
16	22855	326.66675512768	0.2988014423151
16	23029	329.183422474816	0.15195071358722
16	23207	331.700089821952	0.25844541548897
16	23381	334.216757169088	0.011209881267407
16	23555	336.733424516224	0.11522782499021
16	23729	339.25009186336	0.53661688160928
16	23903	341.766759210496	0.024313551667715
16	24077	344.283426557632	0.25096670071228
16	24255	346.800093904768	0.19813655430567
16	24429	349.316761251904	0.33839009532902
16	24603	351.83342859904	0.32394544564778
16	24777	354.350095946176	0.21520511456543
16	24951	356.866763293312	0.19461817684473
16	25125	359.383430640448	0.028096519427593
16	25303	361.900097987584	0.019132472535263
16	25477	364.41676533472	0.3009579277393
16	25651	366.933432681856	0.013585029125258
16	25825	369.450100028992	0.15242262913463
16	25999	371.966767376128	0.29975067499565
16	26173	374.483434723264	0.34313189155097
16	26355	377.0001020704	0.034975847926102
16	26529	379.516769417536	0.43529332582194
16	26703	382.033436764672	0.20802556595277
16	26877	384.550104111808	0.017480856177583
16	27051	387.066771458944	0.016907489121564
16	27225	389.58343880608	0.0044853876644649
16	27403	392.100106153216	0.31076295539043
16	27577	394.616773500352	0.035696431866246
16	27751	397.133440847488	0.31222047422985
16	27925	399.650108194624	0.093292951950476
16	28099	402.16677554176	0.022684548022792
16	28273	404.683442888896	0.023399957561427
16	28451	407.200110236032	0.023241406308926
16	28625	409.716777583168	0.23954182972656
16	28799	412.233444930304	0.07724690691382
16	28973	414.75011227744	0.0098528630822428
16	29147	417.266779624576	0.015642836795379
16	29321	419.783446971712	0.49653278145063
16	29499	422.300114318848	0.047876756808995
16	29673	424.816781665984	0.2116912161669
16	29847	427.33344901312	0.022327164384937
16	30021	429.850116360256	0.048013100954427
16	30195	432.366783707392	0.023389194909302
16	30369	434.883451054528	0.021853958736517
16	30547	437.400118401664	0.025621862072841
16	30721	439.9167857488	0.18743674672336
16	30895	442.433453095936	0.020263504610312
16	31069	444.950120443072	0.1147423317238
16	31243	447.466787790208	0.16831933958411
16	31417	449.983455137344	0.02370241566041
16	31599	452.50012248448	0.024948968157258
16	31773	455.016789831616	0.024192402475066
16	31947	457.533457178752	0.12136346863183
16	32121	460.050124525888	0.061631594983021
16	32295	462.566791873024	0.21708261930855
16	32469	465.08345922016	0.36299181664551
16	32647	467.600126567296	0.016945725339751
16	32821	470.116793914432	0.16684081906424
16	32995	472.633461261568	0.015936100829149
16	33169	475.150128608704	0.022108616812446
16	33343	477.66679595584	0.031969812954774
16	33517	480.183463302976	0.19405110460393
16	33695	482.700130650112	0.021760260127692
16	33869	485.216797997248	0.16409847293258
16	34043	487.733465344384	0.45948815822404
16	34217	490.25013269152	0.019709376276909
16	34391	492.766800038656	0.016213140443647
16	34565	495.283467385792	0.17384794441241
16	34743	497.800134732928	0.48423964426657
16	34917	500.316802080064	0.065912080012047
16	35091	502.8334694272	0.015275675995327
16	35265	505.350136774336	0.027276373785446
16	35439	507.866804121472	0.022029202698636
16	35613	510.383471468608	0.4640731756036
16	35791	512.900138815744	0.39629880941106
16	35965	515.41680616288	0.26161865341505
16	36139	517.933473510016	0.19197373202934
16	36313	520.450140857152	0.018040845879109
16	36487	522.966808204288	0.076336645850995
16	36661	525.483475551424	0.10796845639138
16	36843	528.00014289856	0.14718739393585
16	37017	530.516810245696	0.025596156895696
16	37191	533.033477592832	0.002801721393568
16	37365	535.550144939968	0.27625396343657
16	37539	538.066812287104	0.60804701139931
16	37713	540.58347963424	0.01401358026952
16	37891	543.100146981376	0.04415456450541
16	38065	545.616814328512	0.24425124130449
16	38239	548.133481675648	0.086587191210365
16	38413	550.650149022784	0.15876813320624
16	38587	553.16681636992	0.025618131263193
16	38761	555.683483717056	0.039590176352716
16	38939	558.200151064192	0.19516570608527
16	39113	560.716818411328	0.060703993477272
16	39287	563.233485758464	0.25984215996528
16	39461	565.7501531056	0.46101854328311
16	39635	568.266820452736	0.26623925309848
16	39809	570.783487799872	0.26980825433427
16	39987	573.300155147008	0.25552936789436
16	40161	575.816822494144	0.081678692948092
16	40335	578.33348984128	0.028255848897784
16	40509	580.850157188416	0.27665426958248
16	40683	583.366824535552	0.35341811096863
16	40857	585.883491882688	0.021612466177517
16	41035	588.400159229824	0.40805535484872
16	41209	590.91682657696	0.22778754477484
16	41383	593.433493924096	0.10103648003056
16	41557	595.950161271232	0.033370951844891
16	41731	598.466828618368	0.20777184117107
16	41905	600.983495965504	0.10368328084771
16	42087	603.50016331264	0.27396117677695
16	42261	606.016830659776	0.013233584673388
16	42435	608.533498006912	0.023173880078073
16	42609	611.050165354048	0.023368035451325
16	42783	613.566832701184	0.26617715555714
16	42957	616.08350004832	0.27386182171673
16	43135	618.600167395456	0.43162791588545
16	43309	621.116834742592	0.082932219228158
16	43483	623.633502089728	0.03736266062618
16	43657	626.150169436864	0.043782319739831
16	43831	628.666836784	0.068546773522346
16	44005	631.183504131136	0.09740546079246
16	44183	633.700171478272	0.11647707735778
16	44357	636.216838825408	0.20018807006234
16	44531	638.733506172544	0.28850865692873
16	44705	641.25017351968	0.03531364409693
16	44879	643.766840866816	0.1603743575511
16	45053	646.283508213952	0.14665962679679
16	45231	648.800175561088	0.029851152768601
16	45405	651.316842908224	0.019740454337373
16	45579	653.83351025536	0.10791270546126
16	45753	656.350177602496	0.093890735514234
16	45927	658.866844949632	0.060585436752673
16	46101	661.383512296768	0.072246860005428
16	46279	663.900179643904	0.49065751598329
16	46453	666.41684699104	0.33564741687042
16	46627	668.933514338176	0.023537689434758
16	46801	671.450181685312	0.15086160769144
16	46975	673.966849032448	0.43788433790933
16	47149	676.483516379584	0.31297751433455
16	47331	679.00018372672	0.46464438444582
16	47505	681.516851073856	0.0072459134488885
16	47679	684.033518420992	0.25071889877025
16	47853	686.550185768128	0.019575471116898
16	48027	689.066853115264	0.30177366892696
16	48201	691.5835204624	0.022053473613296
16	48379	694.100187809536	0.4819860361067
16	48553	696.616855156672	0.13361106503912
16	48727	699.133522503808	0.14935570574524
16	48901	701.650189850944	0.018409976460024
16	49075	704.16685719808	0.02727936609647
16	49249	706.683524545216	0.4022595100811
16	49427	709.200191892352	0.13639398673727
16	49601	711.716859239488	0.010825919238391
16	49775	714.233526586624	0.19181073152897
16	49949	716.75019393376	0.012238833011166
16	50123	719.266861280896	0.48665913996063
16	50297	721.783528628032	0.2455168789237
16	50475	724.300195975168	0.066200265933922
16	50649	726.816863322304	0.025275722670743
16	50823	729.33353066944	0.26336955974364
16	50997	731.850198016576	0.29151250561817
16	51171	734.366865363712	0.03695077431877
16	51345	736.883532710848	0.03771044753667
16	51523	739.400200057984	0.5094538173918
16	51697	741.91686740512	0.10108423684976
16	51871	744.433534752256	0.2708785633805
16	52045	746.950202099392	0.46076387528552
16	52219	749.466869446528	0.062583685039631
16	52393	751.983536793664	0.022851756765308
16	52575	754.5002041408	0.034089230970627
16	52749	757.016871487936	0.31757049859507
16	52923	759.533538835072	0.11251643032769
16	53097	762.050206182208	0.17838178641135
16	53271	764.566873529344	0.12178623427657
16	53445	767.08354087648	0.018197407102194
16	53623	769.600208223616	0.011922244999145
16	53797	772.116875570752	0.18580092557688
16	53971	774.633542917888	0.058403060480988
16	54145	777.150210265024	0.11761146640496
16	54319	779.66687761216	0.023918119056527
16	54493	782.183544959296	0.024937514487419
16	54671	784.700212306432	0.029187691064652
16	54845	787.216879653568	0.26957763494769
16	55019	789.733547000704	0.021857862260967
16	55193	792.25021434784	0.20342675062811
16	55367	794.766881694976	0.31781988165229
16	55541	797.283549042112	0.12099936117406
16	55719	799.800216389248	0.023685183027415
16	55893	802.316883736384	0.07824178838389
16	56067	804.83355108352	0.067258372157179
16	56241	807.350218430656	0.50624143968239
16	56415	809.866885777792	0.31266536966943
16	56589	812.383553124928	0.25537153249635
16	56767	814.900220472064	0.023423255621397
16	56941	817.4168878192	0.023332911645768
16	57115	819.933555166336	0.058950057332039
16	57289	822.450222513472	0.1811576470433
16	57463	824.966889860608	0.12834978004815
16	57637	827.483557207744	0.16381283692602
16	57819	830.00022455488	0.19898032793332
16	57993	832.516891902016	0.56990683294271
16	58167	835.033559249152	0.020429253672413
16	58341	837.550226596288	0.19274397626556
16	58515	840.066893943424	0.14964726223115
16	58689	842.58356129056	0.014474042788162
16	58867	845.100228637696	0.025255523164781
16	59041	847.616895984832	0.22089537698512
16	59215	850.133563331968	0.028764122748543
16	59389	852.650230679104	0.021076915945961
16	59563	855.16689802624	0.19791521963569
16	59737	857.683565373376	0.017817461505715
16	59915	860.200232720512	0.31602158546757
16	60089	862.716900067648	0.24867581468708
16	60263	865.233567414784	0.075929703116902
16	60437	867.75023476192	0.02381411789788
16	60611	870.266902109056	0.0086497161703246
16	60785	872.783569456192	0.44128094319241
16	60963	875.300236803328	0.039525626320119
16	61137	877.816904150464	0.10089731544153
16	61311	880.3335714976	0.43769805546041
16	61485	882.850238844736	0.19584220800316
16	61659	885.366906191872	0.022624998363634
16	61833	887.883573539008	0.013001502584135
16	62011	890.400240886144	0.49632556676578
16	62185	892.91690823328	0.026886425690444
16	62359	895.433575580416	0.50280427438079
16	62533	897.950242927552	0.3306835252384
16	62707	900.466910274688	0.36669594440181
16	62881	902.983577621824	0.018996869371205
16	63063	905.50024496896	0.016485645045296
16	63237	908.016912316096	0.40028150256147
16	63411	910.533579663232	0.36603714767038
16	63585	913.050247010368	0.43377754746736
16	63759	915.566914357504	0.053642829137774
16	63933	918.08358170464	0.020460862527933
16	64111	920.600249051776	0.025371275592628
16	64285	923.116916398912	0.022040793736027
16	64459	925.633583746048	0.06022449487756
16	64633	928.150251093184	0.021629324527438
16	64807	930.66691844032	0.022083853138534
16	64981	933.183585787456	0.43456233473645
16	65159	935.700253134592	0.25638485723971
16	65333	938.216920481728	0.017445585340934
16	65507	940.733587828864	0.10610745907139
16	65681	943.250255176	0.037743064703535
16	65855	945.766922523136	0.027505873947133
16	66029	948.283589870272	0.11429461320707
16	66207	950.800257217408	0.25599555131425
16	66381	953.316924564544	0.028955351210734
16	66555	955.83359191168	0.21726018340343
16	66729	958.350259258816	0.42481298849594
16	66903	960.866926605952	0.30910514022543
16	67077	963.383593953088	0.23125815508397
16	67255	965.900261300224	0.31830470581966
16	67429	968.41692864736	0.083101510407007
16	67603	970.933595994496	0.28296874004786
16	67777	973.450263341632	0.14674877775892
16	67951	975.966930688768	0.16353889999732
16	68125	978.483598035904	0.022812913101683
16	68307	981.00026538304	0.014553047556397
16	68481	983.516932730176	0.015334900692816
16	68655	986.033600077312	0.044136366932651
16	68829	988.550267424448	0.16683777226697
16	69003	991.066934771584	0.25050004694861
16	69177	993.58360211872	0.13372851725866
16	69355	996.100269465856	0.50394616433868
16	69529	998.616936812992	0.01224460674628
16	69703	1001.133604160128	0.3095816470424
16	69877	1003.650271507264	0.18444815251551
16	70051	1006.1669388544	0.43660477112392
16	70225	1008.683606201536	0.20105561477018
16	70403	1011.200273548672	0.22924038096431
16	70577	1013.716940895808	0.041305792664036
16	70751	1016.233608242944	0.016533492522219
16	70925	1018.75027559008	0.4307372212307
16	71099	1021.266942937216	0.023245055752753
16	71273	1023.783610284352	0.1146514297449
16	71451	1026.300277631488	0.31096205786021
16	71625	1028.816944978624	0.022015222740221
16	71799	1031.33361232576	0.021632244126529
16	71973	1033.850279672896	0.024298194703029
16	72147	1036.366947020032	0.083570173112801
16	72321	1038.883614367168	0.019331748134079
16	72499	1041.400281714304	0.13035001319649
16	72673	1043.91694906144	0.01596259126355
16	72847	1046.433616408576	0.021603910195415
16	73021	1048.950283755712	0.0038588565589188
16	73195	1051.466951102848	0.20412882474736
16	73369	1053.983618449984	0.14718007098432
16	73551	1056.50028579712	0.41583650226138
16	73725	1059.016953144256	0.096195207772427
16	73899	1061.533620491392	0.11303693350413
16	74073	1064.050287838528	0.24129264040706
16	74247	1066.566955185664	0.046543049175692
16	74421	1069.0836225328	0.15186277419339
16	74599	1071.600289879936	0.11587037335894
16	74773	1074.116957227072	0.021449607722182
16	74947	1076.633624574208	0.091382734276305
16	75121	1079.150291921344	0.11850179775981
16	75295	1081.66695926848	0.31966701816156
16	75469	1084.183626615616	0.16341551565209
16	75647	1086.700293962752	0.47162400355647
16	75821	1089.216961309888	0.47952000416216
16	75995	1091.733628657024	0.48543777319885
16	76169	1094.25029600416	0.031885250874924
16	76343	1096.766963351296	0.011473696731458
16	76517	1099.283630698432	0.0049823846542442
16	76695	1101.800298045568	0.43753302306211
16	76869	1104.316965392704	0.21139100696428
16	77043	1106.83363273984	0.2737775390705
16	77217	1109.350300086976	0.027453380957613
16	77391	1111.866967434112	0.019863415181426
16	77565	1114.383634781248	0.22477658586663
16	77743	1116.900302128384	0.16691027223779
16	77917	1119.41696947552	0.1617958107096
16	78091	1121.933636822656	0.31535130316207
16	78265	1124.450304169792	0.25650805533688
16	78439	1126.966971516928	0.017590708972329
16	78613	1129.483638864064	0.067478844455944
16	78795	1132.0003062112	0.017269285354594
16	78969	1134.516973558336	0.026502801965099
16	79143	1137.033640905472	0.030639235779972
16	79317	1139.550308252608	0.1199449193987
16	79491	1142.066975599744	0.19202258531037
16	79665	1144.58364294688	0.46978526529916
16	79843	1147.100310294016	0.25060751977831
16	80017	1149.616977641152	0.23551484580435
16	80191	1152.133644988288	0.025500471571092
16	80365	1154.650312335424	0.017709565474396
16	80539	1157.16697968256	0.014103565238418
16	80713	1159.683647029696	0.073767138461267
16	80891	1162.200314376832	0.26791165051508
16	81065	1164.716981723968	0.023805202526882
16	81239	1167.233649071104	0.03087878569499
16	81413	1169.75031641824	0.32437475573483
16	81587	1172.266983765376	0.44687258209797
16	81761	1174.783651112512	0.27712371331372
16	81939	1177.300318459648	0.21352084811774
16	82113	1179.816985806784	0.065731985230086
16	82287	1182.33365315392	0.012287163325276
16	82461	1184.850320501056	0.23574289793021
16	82635	1187.366987848192	0.073440792918197
16	82809	1189.883655195328	0.031479019064722
16	82987	1192.400322542464	0.02016693952557
16	83161	1194.9169898896	0.15061158660115
16	83335	1197.433657236736	0.22655486252773
16	83509	1199.950324583872	0.020323627179807
16	83683	1202.466991931008	0.1720307126666
16	83857	1204.983659278144	0.16407163802795
16	84039	1207.50032662528	0.49087373322243
16	84213	1210.016993972416	0.2618816949645
16	84387	1212.533661319552	0.019370615409765
16	84561	1215.050328666688	0.016042755339633
16	84735	1217.566996013824	0.090039790241592
16	84909	1220.08366336096	0.054380855435713
16	85087	1222.600330708096	0.016619462342091
16	85261	1225.116998055232	0.36863742646693
16	85435	1227.633665402368	0.013217100902174
16	85609	1230.150332749504	0.02065345523784
16	85783	1232.66700009664	0.048597891098301
16	85957	1235.183667443776	0.15980573524324
16	86135	1237.700334790912	0.24139731401916
16	86309	1240.217002138048	0.028062044159018
16	86483	1242.733669485184	0.012244623361427
16	86657	1245.25033683232	0.022139332286259
16	86831	1247.767004179456	0.32844740374473
16	87005	1250.283671526592	0.022865042144092
16	87183	1252.800338873728	0.024926386134648
16	87357	1255.317006220864	0.011660276307529
16	87531	1257.833673568	0.47729764388787
16	87705	1260.350340915136	0.48421865261056
16	87879	1262.867008262272	0.25758169507656
16	88053	1265.383675609408	0.03382280428844
16	88231	1267.900342956544	0.021176896227906
16	88405	1270.41701030368	0.081657135147787
16	88579	1272.933677650816	0.020445127569176
16	88753	1275.450344997952	0.4829862178309
16	88927	1277.967012345088	0.10189118142236
16	89101	1280.483679692224	0.11361154757583
16	89283	1283.00034703936	0.31950515463194
16	89457	1285.517014386496	0.094518235889683
16	89631	1288.033681733632	0.28617501671925
16	89805	1290.550349080768	0.25998677667731
16	89979	1293.067016427904	0.057782575456279
16	90153	1295.58368377504	0.023094405661289
16	90331	1298.100351122176	0.10758113650178
16	90505	1300.617018469312	0.30369480489199
16	90679	1303.133685816448	0.043693517633154
16	90853	1305.650353163584	0.024090339591198
16	91027	1308.16702051072	0.13946365918998
16	91201	1310.683687857856	0.054674818863126
16	91379	1313.200355204992	0.024608718274752
16	91553	1315.717022552128	0.2889594369989
16	91727	1318.233689899264	0.11918818212142
16	91901	1320.7503572464	0.023634169581952
16	92075	1323.267024593536	0.059227289931165
16	92249	1325.783691940672	0.074412066615948
16	92427	1328.300359287808	0.026832138200878
16	92601	1330.817026634944	0.011851656621246
16	92775	1333.33369398208	0.028370643002885
16	92949	1335.850361329216	0.019856671105306
16	93123	1338.367028676352	0.093901714433833
16	93297	1340.883696023488	0.02833051278009
16	93475	1343.400363370624	0.018978555992363
16	93649	1345.91703071776	0.47319301954106
16	93823	1348.433698064896	0.11564639846108
16	93997	1350.950365412032	0.43833826957218
16	94171	1353.467032759168	0.43224693218088
16	94345	1355.983700106304	0.010724677721947
16	94527	1358.50036745344	0.019702798399232
16	94701	1361.017034800576	0.068311219983613
16	94875	1363.533702147712	0.026550807522797
16	95049	1366.050369494848	0.25855796385668
16	95223	1368.567036841984	0.031980799968696
16	95397	1371.08370418912	0.094158066566717
16	95575	1373.600371536256	0.26892187585952
16	95749	1376.117038883392	0.23302777376196
16	95923	1378.633706230528	0.20685884038553
16	96097	1381.150373577664	0.32590686203577
16	96271	1383.6670409248	0.025295647683163
16	96445	1386.183708271936	0.010451152238373
16	96623	1388.700375619072	0.31611931644195
16	96797	1391.217042966208	0.022632561331451
16	96971	1393.733710313344	0.26847982776883
16	97145	1396.25037766048	0.35840221626004
16	97319	1398.767045007616	0.096687990363534
16	97493	1401.283712354752	0.56082194843148
16	97671	1403.800379701888	0.1022035322112
16	97845	1406.317047049024	0.48406823823746
16	98019	1408.83371439616	0.23550306442812
16	98193	1411.350381743296	0.070522366822665
16	98367	1413.867049090432	0.14144526817527
16	98541	1416.383716437568	0.50219175207272
16	98719	1418.900383784704	0.029668072558101
16	98893	1421.41705113184	0.022000706991282
16	99067	1423.933718478976	0.054311834880934
16	99241	1426.450385826112	0.0062824724091788
16	99415	1428.967053173248	0.24128067826193
16	99589	1431.483720520384	0.15217867423975
16	99771	1434.00038786752	0.007607120222615
16	99945	1436.517055214656	0.50100782287987
16	100119	1439.033722561792	0.076205060719327
16	100293	1441.550389908928	0.36418084382625
16	100467	1444.067057256064	0.32293112636166
16	100641	1446.5837246032	0.071247175543264
16	100819	1449.100391950336	0.31060168432011
16	100993	1451.617059297472	0.24455208490007
16	101167	1454.133726644608	0.091677888072151
16	101341	1456.650393991744	0.22077140747816
16	101515	1459.16706133888	0.20281365009245
16	101689	1461.683728686016	0.051373003935659
16	101867	1464.200396033152	0.29555154849512
16	102041	1466.717063380288	0.21962174637587
16	102215	1469.233730727424	0.015001401602853
16	102389	1471.75039807456	0.031716206019891
16	102563	1474.267065421696	0.27937594691942
16	102737	1476.783732768832	0.35214806802734
16	102915	1479.300400115968	0.38180987791597
16	103089	1481.817067463104	0.35168994082392
16	103263	1484.33373481024	0.22147898465912
16	103437	1486.850402157376	0.012060911515469
16	103611	1489.367069504512	0.43558277056316
16	103785	1491.883736851648	0.26095167739292
16	103963	1494.400404198784	0.28277764908555
16	104137	1496.91707154592	0.15742855542591
16	104311	1499.433738893056	0.035432572570325
16	104485	1501.950406240192	0.6928698546811
16	104659	1504.467073587328	0.18444800381647
16	104833	1506.983740934464	0.11524028098644
16	105015	1509.5004082816	0.24644755173503
16	105189	1512.017075628736	0.10113004627075
16	105363	1514.533742975872	0.48049722016782
16	105537	1517.050410323008	0.20945630046488
16	105711	1519.567077670144	0.064927900710485
16	105885	1522.08374501728	0.2299550269346
16	106063	1524.600412364416	0.52317838842918
16	106237	1527.117079711552	0.35943827027786
16	106411	1529.633747058688	0.045723929762303
16	106585	1532.150414405824	0.069177568336439
16	106759	1534.66708175296	0.49028952344541
16	106933	1537.183749100096	0.28443374046264
16	107111	1539.700416447232	0.025731368283868
16	107285	1542.217083794368	0.206337812555
16	107459	1544.733751141504	0.029444361022373
16	107633	1547.25041848864	0.25380902423799
16	107807	1549.767085835776	0.13517864095253
16	107981	1552.283753182912	0.18933644049891
16	108159	1554.800420530048	0.066978079216018
16	108333	1557.317087877184	0.48561957229029
16	108507	1559.83375522432	0.024620446961951
16	108681	1562.350422571456	0.062230358333758
16	108855	1564.867089918592	0.26197764004605
16	109029	1567.383757265728	0.025815391258616
16	109207	1569.900424612864	0.24872713887045
16	109381	1572.41709196	0.36156814261768
16	109555	1574.933759307136	0.0014620993113635
16	109729	1577.450426654272	0.023321890271357
16	109903	1579.967094001408	0.13493188570169
16	110077	1582.483761348544	0.023249111795762
16	110259	1585.00042869568	0.26034868753436
16	110433	1587.517096042816	0.025337788288267
16	110607	1590.033763389952	0.46241407159433
16	110781	1592.550430737088	0.063239229975014
16	110955	1595.067098084224	0.02067935711233
16	111129	1597.58376543136	0.048974191849763
16	111307	1600.100432778496	0.31961196401956
16	111481	1602.617100125632	0.22442833949046
16	111655	1605.133767472768	0.25699499126135
16	111829	1607.650434819904	0.29900519077685
16	112003	1610.16710216704	0.30579582491794
16	112177	1612.683769514176	0.49447628816121
16	112355	1615.200436861312	0.022629901873896
16	112529	1617.717104208448	0.15662027406545
16	112703	1620.233771555584	0.024121916590999
16	112877	1622.75043890272	0.02913066269008
16	113051	1625.267106249856	0.23602269050857
16	113225	1627.783773596992	0.15797820366706
16	113403	1630.300440944128	0.12595017560538
16	113577	1632.817108291264	0.0097424515113739
16	113751	1635.3337756384	0.015338896776333
16	113925	1637.850442985536	0.083031572251776
16	114099	1640.367110332672	0.41670129178667
16	114273	1642.883777679808	0.016972468663552
16	114451	1645.400445026944	0.032979092311683
16	114625	1647.91711237408	0.062527547277854
16	114799	1650.433779721216	0.2866447842277
16	114973	1652.950447068352	0.022757024628178
16	115147	1655.467114415488	0.042510368647798
16	115321	1657.983781762624	0.28949213294209
16	115503	1660.50044910976	0.061547391629448
16	115677	1663.017116456896	0.029053515438565
16	115851	1665.533783804032	0.068916698846616
16	116025	1668.050451151168	0.2507670181331
16	116199	1670.567118498304	0.021965167631565
16	116373	1673.08378584544	0.017712398077485
16	116551	1675.600453192576	0.32713430424074
16	116725	1678.117120539712	0.38475058998632
16	116899	1680.633787886848	0.032553414478372
16	117073	1683.150455233984	0.10231832109316
16	117247	1685.66712258112	0.14318778888253
16	117421	1688.183789928256	0.022373586702573
16	117599	1690.700457275392	0.16179437344338
16	117773	1693.217124622528	0.027192596835936
16	117947	1695.733791969664	0.24185693551541
16	118121	1698.2504593168	0.24339597887242
16	118295	1700.767126663936	0.010984419539276