version 2
run General-0-20220214-20:51:21-2372
attr configname General
attr datetime 20220214-20:51:21
attr experiment General
attr inifile omnetpp.ini
attr iterationvars $traffic=5
attr iterationvars2 "$traffic=5, $repetition=0"
attr measurement $traffic=5
attr network BMACExampleNetwork
attr processid 2372
attr repetition 0
attr replication #0
attr resultdir results
attr runnumber 0
attr seedset 0
attr traffic 5

vector 16  BMACExampleNetwork.node[3].nic.mac  ""  ETV
vector 17  BMACExampleNetwork.node[3].nic.mac  ""  ETV
16	315	4.533336784664	68.273089472949
16	659	9.566672980176	13.040741935716
16	831	12.083341352926	119.34543642502
16	1011	14.60001071392	40.180380160192
16	1179	17.116680136566	6.320786656878
16	1523	22.15001692123	12.999293348513
16	1699	24.666685389768	95.761767689304
16	2047	29.700021489492	123.18895981985
16	2215	32.216690850486	7.7110932541687
16	2903	42.283365526334	30.78806895274
16	3427	49.833370987052	19.026092554411
16	3595	52.350040409698	109.38720667031
16	3923	57.383377194362	4.7971837219246
16	4091	59.9000456629	102.44450973119
16	4255	62.416713389874	71.426616610157
16	4419	64.933381762624	48.34254585127
16	4583	67.450051123618	62.388570418673
16	4747	69.966720546264	7.466368026328
16	5083	75.000057330928	16.467541111461
16	5247	77.516725799466	3.4911248398633
16	5411	80.03339352644	37.087627237308
16	5575	82.55006189919	5.4872127838882
16	5739	85.066731260184	5.4219001868894
16	5903	87.58340068283	4.1798007809028
16	6235	92.616737467494	5.2502527328498
16	6399	95.133405936032	103.56163019364
16	6563	97.650073663006	38.68261433635
16	6891	102.68341139675	81.653856518559
16	7059	105.200080819396	67.197650941106
16	7387	110.23341760406	11.39393602938
16	7551	112.750086072598	8.9750248234061
16	7715	115.266753799572	28.756215716864
16	8047	120.300091533316	38.841839738989
16	8211	122.816760955962	52.650868878083
16	8703	130.366766209164	6.8312087769058
16	8867	132.883433936138	29.034356347249
16	9035	135.400102308888	6.0291407224428
16	9199	137.916771669882	2.5066138662429
16	9363	140.433441092528	98.393117793616
16	9691	145.466777877192	117.38312871345
16	9855	147.98344634573	8.246906277876
16	10027	150.500114072704	7.1838411460701
16	10355	155.533451806448	56.877460230112
16	10519	158.050121229094	107.04817595441
16	11179	168.11679420927	6.9925425953055
16	11343	170.63346258202	40.789513149738
16	11507	173.150131943014	4.7486084713868
16	11671	175.66680136566	39.823737784836
16	11835	178.183469240374	75.980188626544
16	12003	180.700138150324	5.0161842731577
16	12167	183.216806618862	111.57017946147
16	12331	185.733474345836	44.945486571712
16	12659	190.76681207958	45.475221413699
16	12823	193.283481502226	27.612422747929
16	13155	198.31681828689	65.322602800324
16	13319	200.833486755428	73.355948738322
16	13483	203.350154482402	7.2243902439359
16	14471	218.450166891994	2.1335959912882
16	14799	223.483502991718	4.027741334162
16	14971	226.000172352712	34.678411735175
16	15463	233.550178560022	6.748050852026
16	15791	238.583514755534	9.5669737196758
16	15959	241.100183128284	5.7231778837299
16	16123	243.616852489278	5.4509927950024
16	16287	246.133521911924	5.7861981288618
16	16615	251.166858696588	5.9719785325674
16	16779	253.683527165126	6.3040199345255
16	16947	256.2001948921	5.6278303923165
16	17111	258.71686326485	41.148295705888
16	17439	263.75020204849	98.549179600394
16	17935	271.300207301692	35.681692845628
16	18263	276.333543401416	5.8507611457255
16	18427	278.85021276241	2.7429661939898
16	18591	281.366882185056	49.80580602716
16	18923	286.40021896972	4.0732305463289
16	19087	288.916887438258	5.9645356666144
16	19251	291.433555165232	3.6136000573189
16	19415	293.950223537982	69.981226398887
16	19579	296.466892898976	9.6315065215013
16	19743	298.983562321622	104.6501979786
16	20079	304.016899106286	6.32887034962
16	20243	306.533567574824	7.8205851565994
16	20571	311.566903674548	78.646049862834
16	20735	314.083573035542	47.940456310694
16	21231	321.633579242852	7.4104352658059
16	21395	324.15024771139	7.4910994084587
16	22055	334.216922594754	3.1370428460715
16	22547	341.766927847956	6.186198914704
16	22879	346.80026394768	48.494066048683
16	23207	351.83360273132	56.358356436009
16	23535	356.866939515984	56.486438070057
16	23699	359.383607984522	6.2896957262185
16	23867	361.900275711496	6.6456355824795
16	24031	364.416944084246	66.458418087035
16	24195	366.93361344524	3.8722672708497
16	24359	369.450282867886	23.455094569961
16	24687	374.48361965255	65.232875255303
16	24859	377.000288121088	8.4484564618051
16	25351	384.550293581806	5.7367647049296
16	25515	387.066963004452	5.3595788411006
16	25847	392.100299789116	81.058758667946
16	26011	394.616968257654	9.0371374487064
16	26175	397.133635984628	46.900027594826
16	26503	402.166973718372	6.5461621556589
16	26667	404.683643141018	5.7931187710136
16	26999	409.716979925682	94.867565584797
16	27163	412.23364839422	79.699042895853
16	27327	414.750316121194	3.5926055101025
16	27491	417.266984493944	3.5975694605362
16	27823	422.300323277584	9.4435648461441
16	28151	427.333660062248	5.0393173865705
16	28315	429.850328530786	15.027508316694
16	28479	432.36699625776	6.747210147546
16	28643	434.88366463051	5.8138438948878
16	28811	437.400333991504	7.2032386490557
16	28975	439.91700341415	42.217745422236
16	29467	447.467008667352	63.725621823529
16	29631	449.983676394326	7.4412358140914
16	29803	452.500344767076	7.1459411878948
16	29967	455.01701412807	6.3404267226499
16	30131	457.533683550716	42.601563091929
16	30459	462.56702033538	37.085266206719
16	30623	465.083688803918	84.232071189596
16	30791	467.600356530892	6.3841582091289
16	30955	470.117024903642	38.149163642681
16	31119	472.633694264636	4.1371802810507
16	31283	475.150363687282	5.7599849328308
16	31611	480.183700471946	69.21472690418
16	31779	482.700368940484	5.9701490486429
16	32107	487.733705040208	102.81553721553
16	32271	490.250374401202	5.409005635775
16	32435	492.767043823848	4.538273231915
16	32931	500.31704907705	17.155592671091
16	33095	502.833716804024	4.1530226104448
16	33259	505.350385176774	8.6585449251066
16	33423	507.867054537768	6.0065320832361
16	33919	515.417060745078	73.430701121347
16	34083	517.933729213616	45.805913848335
16	34247	520.45039694059	5.7565328494847
16	34411	522.96706531334	20.3221965197
16	34575	525.483734674334	74.878125729163
16	34747	528.00040409698	33.284473703943
16	35075	533.033740881644	1.2128464020696
16	35239	535.550409350182	64.649251407853
16	35567	540.583745449906	4.9737680917461
16	35735	543.1004148109	69.426568336663
16	36227	550.65042101821	59.148533464284
16	36391	553.167089486748	6.4385575698803
16	36555	555.683757213722	13.968744175569
16	36723	558.200425586472	47.705335917447
16	37379	568.267101154776	115.61966382136
16	37543	570.783769623314	103.56269027062
16	38039	578.333775084032	7.3961612854672
16	38531	585.883781291342	4.5552027807563
16	38699	588.40044975988	94.652935204129
16	39191	595.950455220598	9.4240944614624
16	39355	598.467124643244	78.51996019036
16	39691	603.500461427908	126.19775618135
16	39855	606.017129896446	3.4563783111339
16	40019	608.53379762342	7.631244823556
16	40183	611.05046599617	6.3808988980415
16	40843	621.117141564474	15.053291840394
16	41007	623.633810033012	8.5276081105909
16	41171	626.150477759986	7.7327828338363
16	41335	628.667146132736	16.813157701833
16	41499	631.18381549373	16.945793346873
16	41667	633.700484916376	26.613497584823
16	41995	638.73382170104	87.157925509325
16	42159	641.250490169578	7.3056478900803
16	42323	643.767157896552	24.061487018352
16	42487	646.283826269302	35.978247165669
16	42655	648.800495630296	8.1895853777854
16	42819	651.317165052942	5.4020008390458
16	43311	658.867170306144	12.295214856887
16	43475	661.383838033118	19.254544885154
16	43643	663.900506405868	120.28578172551
16	43971	668.933845189508	6.835959540431
16	44463	676.48385044271	73.120129407742
16	44799	681.517186542434	2.1943125156923
16	45127	686.550525326074	5.5043902550031
16	45455	691.583862110738	5.0919817796301
16	45623	694.100530579276	114.29367222849
16	45787	696.61719830625	36.440772509096
16	45951	699.133866679	37.194192856246
16	46115	701.650536039994	5.0163199170576
16	46279	704.16720546264	6.8296835406639
16	46611	709.200542247304	40.825067900055
16	46775	711.717210715842	2.9639437124532
16	46939	714.233878442816	65.675750225982
16	47103	716.750546815566	3.8758396791831
16	47431	721.783885599206	126.41491206677
16	47763	726.81722238387	5.2244779013771
16	47927	729.333890852408	60.914291062785
16	48255	734.367226952132	6.7016106679991
16	48419	736.883896313126	11.735633118096
16	48915	744.433902520436	98.930916125326
16	49079	746.950570988974	95.337223590901
16	49243	749.467238715948	17.32869899245
16	49407	751.983907088698	6.1141162949428
16	49579	754.500576449692	66.760845452335
16	49743	757.017245872338	74.51749762342
16	50071	762.050582657002	51.14526711296
16	50399	767.083918852514	4.7113338687206
16	50567	769.600587225264	2.2779208948744
16	50731	772.117256586258	48.064891838098
16	50895	774.633926008904	12.607240968983
16	51223	779.667262793568	4.3893841806041
16	51387	782.183931262106	5.9753477607373
16	51555	784.70059898908	7.6118156526303
16	51719	787.21726736183	98.886012433533
16	51883	789.733936722824	6.1907583388837
16	52047	792.25060614547	54.266894442153
16	52375	797.283942930134	84.151406820573
16	52543	799.800611398672	6.2630714961146
16	52707	802.317279125646	21.540848835578
16	52871	804.833947498396	17.009173298043
16	53531	814.9006230667	5.3569501172448
16	53695	817.417291535238	5.4222801786519
16	53859	819.933959262212	35.954803115544
16	54023	822.450627634962	78.368762475872
16	54187	824.967296995956	33.123679598358
16	54351	827.483966418602	36.027301341174
16	54851	835.033971671804	5.2817375025796
16	55015	837.550639398778	29.196250323567
16	55179	840.067307771528	37.057181126657
16	55343	842.583977132522	4.9496978737699
16	55511	845.100646555168	68.374092079945
16	55839	850.133983339832	6.1258691031897
16	56003	852.65065180837	5.422339768324
16	56167	855.167319535344	29.99931818709
16	56331	857.683987908094	4.4659034876156
16	56499	860.200657269088	83.966735665881
16	56663	862.717326691734	57.953431927665
16	56991	867.750663476398	5.7881159025142
16	57155	870.267331944936	1.9006149749929
16	57319	872.78399967191	68.865994872295
16	57487	875.30066804466	10.931253337729
16	57651	877.817337405654	74.896200032029
16	58143	885.367343612964	4.727081543887
16	58307	887.884012081502	4.9373913306956
16	58475	890.400679808476	86.951401377617
16	58639	892.917348181226	6.9972117398609
16	58803	895.43401754222	42.649883420492
16	58967	897.950686964866	78.767682936165
16	59295	902.98402374953	3.5495995091421
16	59467	905.500692218068	3.8036358844128
16	59631	908.017359945042	66.499839458965
16	59795	910.534028317792	72.349200225232
16	60123	915.567367101432	7.6303457352356
16	60455	920.600703886096	4.9354633826853
16	60619	923.117372354634	5.9085415925282
16	60783	925.634040081608	11.252416315675
16	60947	928.150708454358	5.4260938592407
16	61111	930.667377815352	6.7169215904557
16	61443	935.700715112712	145.43447333423
16	61607	938.217384022662	4.2320017930041
16	61771	940.7340524912	39.6182270014
16	61935	943.250720218174	13.733240719305
16	62099	945.767388590924	7.053728904724
16	62923	958.350732627766	99.315305926188
16	63087	960.86740035474	46.15104512112
16	63251	963.38406872749	87.084918094104
16	63419	965.900738088484	85.77059940533
16	63583	968.41740751113	18.86171079905
16	63911	973.450744295794	103.82237686527
16	64075	975.967412764332	62.093035131602
16	64239	978.484080491306	5.5054572136755
16	64411	981.000748864056	4.4720842687049
16	64575	983.51741822505	4.1437102195063
16	64739	986.034087647696	84.382079800829
16	65067	991.06742443236	80.919120584328
16	65399	996.100760627872	81.263094779519
16	65563	998.617429000622	3.9188556519512
16	66219	1008.684104568926	63.994758344485
16	66387	1011.200773037464	50.785406990029
16	66551	1013.717440764438	9.4527986892857
16	66715	1016.234109137188	4.7596432001173
16	67043	1021.267447920828	5.564263012209
16	67375	1026.300784705492	112.15983885405
16	67539	1028.81745317403	5.6733330078804
16	67703	1031.334120901004	6.3301095282652
16	67867	1033.850789273754	6.6937800422926
16	68031	1036.367458634748	26.732234466505
16	68195	1038.884128057394	4.9340631675487
16	68527	1043.917464842058	4.2851786351255
16	68691	1046.434133310596	4.7139269272494
16	68855	1048.95080103757	0.82742614172532
16	69183	1053.984138771314	39.571873729134
16	69847	1064.050813447162	109.29482276109
16	70011	1066.567481174136	8.6056051032858
16	70175	1069.084149546886	59.012018017547
16	70343	1071.60081890788	74.124341330462
16	70507	1074.117488330526	6.3636056594087
16	70835	1079.15082511519	37.445629611516
16	70999	1081.667493583728	72.561204211951
16	71163	1084.184161310702	43.608840309978
16	71987	1096.767505251756	3.0955748474319
16	72151	1099.284173720294	2.0148041446805
16	72319	1101.800841447268	79.132213262443
16	72811	1109.350848603658	7.4961793252881
16	73139	1114.384185388322	83.631198547679
16	73307	1116.90085385686	65.439831213019
16	73471	1119.417521583834	43.406985676158
16	73635	1121.934189956584	82.592551207484
16	73963	1126.967528740224	5.2135040597389
16	74299	1132.000865524888	4.6056217219285
16	74463	1134.517533993426	9.1203470833231
16	74627	1137.0342017204	7.2825685426182
16	75451	1149.617545661454	148.67132790865
16	75615	1152.134214129992	5.3251984396223
16	75779	1154.650881856966	4.0814076361874
16	75943	1157.167550229716	4.0699834363211
16	76107	1159.68421959071	27.473655380886
16	76603	1167.23422579802	7.1539837861548
16	77427	1179.817569149922	82.869971770879
16	77755	1184.850905934586	87.728259580933
16	77919	1187.367574403124	15.74393453457
16	78083	1189.884242130098	7.2136724423147
16	78251	1192.400910502848	5.46675207142
16	78907	1202.467586071152	49.425637403758
16	79071	1204.98425453969	60.889420983521
16	79407	1210.017590639414	58.02039647062
16	79571	1212.534260000408	5.237029622286
16	79735	1215.050929423054	3.8382375836412
16	80063	1220.084266207718	12.132843403951
16	80231	1222.600934676256	4.0037458299536
16	80395	1225.11760240323	56.195407065174
16	80559	1227.63427077598	4.177828421304
16	80723	1230.150940136974	6.0645778681744
16	80887	1232.66760955962	91.811050751265
16	81219	1237.700946344284	80.710194591005
16	81383	1240.217614812822	7.1594706238422
16	81547	1242.734282539796	4.3655433840713
16	81711	1245.250950912546	6.0996105552634
16	82039	1250.284289696186	6.411492349269
16	82371	1255.31762648085	3.5741576678621
16	82535	1257.834294949388	120.40615612922
16	82699	1260.350962676362	77.015620822774
16	82863	1262.867631049112	83.140110894915
16	83195	1267.900969832752	5.1589662727689
16	83523	1272.934306617416	4.6981687681482
16	83851	1277.967642812928	47.185673266626
16	84015	1280.484311185678	31.087675596101
16	84187	1283.000980546672	85.555833183219
16	84351	1285.517649969318	31.10490712195
16	84679	1290.550986753982	108.69399949946
16	84843	1293.06765522252	11.832907619708
16	85007	1295.584322949494	7.4644498341797
16	85503	1303.134330105884	19.347751654533
16	85831	1308.167666890548	15.020585288169
16	85995	1310.684335359086	15.544370976641
16	86163	1313.20100308606	7.17444232865
16	86327	1315.71767145881	48.765055791999
16	86491	1318.234340819804	41.089295387817
16	86655	1320.75101024245	6.1253025693061
16	86983	1325.784347027114	14.929586736723
16	87151	1328.301015495652	6.2313503583476
16	87315	1330.817683222626	3.7624554946174
16	87479	1333.334351595376	7.4573638755105
16	87643	1335.85102095637	5.5514152254633
16	87807	1338.367690379016	45.325537028679
16	88139	1343.40102716368	4.1986518001568
16	88303	1345.917695632218	122.11504666079
16	88467	1348.434363359192	36.576617424137
16	88631	1350.951031731942	97.755107160464
16	89295	1361.017707300246	13.330917146245
16	89459	1363.534375768784	6.2643023172663
16	89623	1366.051043495758	38.398157789911
16	89787	1368.567711868508	8.0969520370137
16	89951	1371.084381229502	22.573921178858
16	90611	1381.15105590535	75.066857537029
16	90775	1383.667723632324	6.737858868054
16	90939	1386.184392005074	3.3974106039753
16	91271	1391.217730788714	8.3341837386509
16	91599	1396.251067573378	99.719893472464
16	91763	1398.767736041916	21.000001164239
16	91927	1401.28440376889	74.629537000334
16	92423	1408.83441092528	110.82243960306
16	92751	1413.867747709944	40.32346917019
16	92915	1416.384416178482	131.22906393875
16	93083	1418.901083905456	11.036387875727
16	93247	1421.417752278206	6.0573779410023
16	93411	1423.9344216392	14.638971177915
16	93575	1426.451091061846	4.0551038614035
16	93903	1431.48442784651	27.023701424035
16	94075	1434.001096315048	3.1857114118142
16	94239	1436.517764042022	80.64485601364
16	94403	1439.034432414772	18.454234135033
16	94567	1441.551101775766	48.241668346255
16	94731	1444.067771198412	76.533573025223
16	95063	1449.101107983076	112.38690501299
16	95227	1451.617776451614	98.872107697357
16	95391	1454.134444178588	26.200583412168
16	95555	1456.651112551338	62.770944965787
16	95719	1459.167781912332	59.126433888959
16	95883	1461.684451334978	57.559575177119
16	96051	1464.201119209692	105.55083824444
16	96215	1466.717788119642	65.366805323016
16	96379	1469.23445658818	5.4674747253335
16	96543	1471.751124315154	8.0989649446531
16	96707	1474.267792687904	103.21240845441
16	96871	1476.784462048898	36.32066568025
16	97039	1479.301131471544	62.944581780795
16	97367	1484.334468256208	82.858441953466
16	97531	1486.851136724746	5.1952589127139
16	97695	1489.36780445172	67.831813174868
16	98027	1494.401142185464	77.377265673461
16	98683	1504.467816861312	40.111434434437
16	99183	1512.01782232203	14.19364198
16	99675	1519.56782852934	21.794343609677
16	99839	1522.084496997878	104.36660596711
16	100171	1527.117833097602	87.478096635136
16	100335	1529.634502458596	23.158935819622
16	100499	1532.151171881242	26.736866099402
16	100827	1537.184508665906	105.69705691951
16	100995	1539.701177134444	6.7718763769328
16	101159	1542.217844861418	49.916262595064
16	101323	1544.734513234168	6.9468656829617
16	101651	1549.767852017808	102.70842741508
16	101983	1554.801188802472	22.04916308236
16	102311	1559.834524997984	7.853018766728
16	102475	1562.351193370734	15.415465812725
16	102639	1564.867862731728	69.011245484132
16	102803	1567.384532154374	7.4063125369262
16	103135	1572.417868939038	81.299788670578
16	103299	1574.934537407576	1.1948284792796
16	103463	1577.45120513455	6.5106688902385
16	103627	1579.9678735073	18.136782341285
16	103791	1582.484542868294	7.1926793831514
16	103963	1585.00121229094	59.005808769533
16	104619	1595.067885271116	5.9845300997053
16	104783	1597.584553643866	11.494546846965
16	104951	1600.10122300486	85.796710749678
16	105115	1602.617892427506	105.00525958607
16	105279	1605.13456030222	141.30960765842
16	105443	1607.65122921217	59.047817107223
16	105607	1610.167897680708	53.601898627393
16	105939	1615.201233780432	6.1401437289219
16	106103	1617.717903141426	72.617756779121
16	106267	1620.234572564072	6.0939764917823
16	106595	1625.267909348736	149.95289471755
16	106759	1627.784577817274	33.734448655191
16	107091	1632.817913916998	3.2705590248071
16	107255	1635.334583277992	4.4513402315842
16	107419	1637.851252700638	15.000912969276
16	107747	1642.884589485302	2.9178841158997
16	107915	1645.40125795384	7.8633924018309
16	108079	1647.917925680814	17.012159310501
16	108407	1652.951263414558	6.1051611386985
16	108571	1655.467932837204	9.8055575098257
16	109071	1663.017938090406	7.2502663100034
16	109235	1665.53460581738	10.846345384607
16	109399	1668.05127419013	55.506518092806
16	109563	1670.567943551124	5.7712023691
16	109727	1673.08461297377	4.6847900001717
16	110223	1680.634618226972	7.9555928235014
16	110551	1685.667954326696	61.867302309965
16	110715	1688.18462368769	6.3515978481312
16	110883	1690.701293110336	36.312927779983
16	111211	1695.734629895	94.966655210461
16	111539	1700.767966090512	5.9612671013145
16	111871	1705.801303824256	7.2749348902261
16	112363	1713.351310031566	5.1702043552208
16	112527	1715.867978500104	57.58251430623
16	112691	1718.384646227078	8.4805802278313
16	112859	1720.901314599828	92.902155789653
16	113023	1723.417983960822	7.0861639278506
16	113187	1725.934653383468	77.386331253462
16	113679	1733.48465863667	115.82285476088
16	114015	1738.517994736394	3.8376978246647
16	114179	1741.034664097388	5.7662674331827
16	114671	1748.584670304698	119.82640096804
16	114839	1751.101338773236	13.476822020703
16	115167	1756.13467487296	44.762773101264
16	115331	1758.651344233954	8.7464885001673
16	115495	1761.1680136566	5.0729013485214
16	115659	1763.684681531314	93.848144864177
16	115827	1766.201350441264	3.6021292165556
16	115991	1768.718018909802	118.33987436075
16	116319	1773.751355009526	107.40841935921
16	116483	1776.26802437052	49.35472948262
16	116647	1778.784693793166	29.134471274442
16	116979	1783.81803057783	81.715659119115
16	117143	1786.334699046368	30.106828746242
16	117307	1788.851366773342	11.805913106013
16	117471	1791.368035146092	96.230616099522
16	117635	1793.884704507086	5.3959449027011
16	117803	1796.401373929732	94.082373000914
16	118131	1801.434710714396	7.320895907431
16	118295	1803.951379182934	49.404034610204
16	118459	1806.468046909908	56.317544591961
16	118623	1808.984715282658	80.572275749468
16	118795	1811.501384643652	6.6486149049338
16	118959	1814.018054066298	1.3751726832904
16	119287	1819.051390850962	124.16605589385
16	119451	1821.5680593195	6.4610130066501
16	119615	1824.084727046474	63.905971666939
16	119783	1826.601395419224	4.1721965572581
16	119947	1829.118064780218	6.7262793594785
16	120111	1831.634734202864	6.256278339261
16	120439	1836.668070987528	5.9828614491571
16	120603	1839.184739456066	28.519842709786
16	120935	1844.21807555579	7.6095282059276
16	121263	1849.25141433943	9.2706219468804
16	121591	1854.284751124094	74.100511860729
16	121759	1856.801419592632	75.005571361322
16	121923	1859.318087319606	41.458309680291
16	122087	1861.834755692356	6.742244678782
16	122251	1864.35142505335	35.510085168464
16	122415	1866.868094475996	8.7164599675909
16	122747	1871.90143126066	74.209071869195
16	122911	1874.418099729198	5.8311343733544
16	123567	1884.484774612562	42.692829214379
16	124067	1892.034779865764	37.270167132727
16	124231	1894.551447592738	5.6600102929251
16	124395	1897.068115965488	4.3008976931705
16	124559	1899.584785326482	8.8462440805777
16	124727	1902.101454749128	49.268613590149
16	125055	1907.134791533792	117.59939460822
16	125219	1909.65146000233	111.87853691327
16	125879	1919.718134885694	6.0266096385347
16	126371	1927.268140138896	58.474618007196
16	126535	1929.78480786587	42.639612154712
16	126703	1932.30147623862	6.5209047500822
16	126867	1934.818145599614	95.35282283356
16	127031	1937.33481502226	65.325407066804
16	127359	1942.368151806924	22.436950408502
16	127523	1944.884820275462	6.15449239941
16	127691	1947.401488002436	72.94882136846
16	127855	1949.918156375186	7.6394461221618
16	128019	1952.43482573618	4.9539723231737
16	128511	1959.98483194349	46.808109861289
16	128683	1962.501500412028	4.0534573065583
16	128847	1965.018168139002	23.57077856523
16	129011	1967.534836511752	110.31398594608
16	129175	1970.051505872746	4.844001788688
16	129671	1977.601512080056	5.039713029538
16	129835	1980.118180548594	8.9294722690125
16	129999	1982.634848275568	35.670672908443
16	130163	1985.151516648318	98.975993791016
16	130327	1987.668186009312	47.589940094023
16	130823	1995.218192216622	53.012036240973
16	130987	1997.73486068516	96.520486991462
16	131315	2002.768196784884	4.71431333655
16	131479	2005.284866145878	56.393096861881
16	131647	2007.801535568524	26.666863897733
16	132303	2017.8682085487	13.678942169705
16	132467	2020.38487692145	92.363937358765
16	133127	2030.451552489754	57.989855583105
16	133291	2032.968220958292	77.73130928623
16	133791	2040.51822641901	7.3764851051707
16	133955	2043.034895841656	1.3846817326853
16	134283	2048.06823262632	13.10682165787
16	134447	2050.584901094858	5.0026788775731
16	134615	2053.101568821832	9.0553166232198
16	134779	2055.618237194582	111.96869908705
16	134943	2058.134906555576	57.503662213574
16	135435	2065.684912762886	62.642150020155
16	135603	2068.201581231424	104.03778712914
16	135767	2070.718248958398	6.7405650603074
16	135931	2073.234917331148	35.307285337011
16	136095	2075.751586692142	8.7067232475216
16	136591	2083.301592899452	42.291445336973
16	136755	2085.81826136799	127.88151295695
16	137083	2090.851597467714	3.0035700446076
16	137247	2093.368266828708	3.1477288968499
16	137411	2095.884936251354	5.1419138008719
16	137579	2098.401604126068	133.5771582636
16	137743	2100.918273036018	112.60016306228
16	137907	2103.434941504556	5.8073089198911
16	138235	2108.46827760428	69.216970739279
16	138399	2110.984946965274	6.213844595242
16	138571	2113.50161638792	3.3950954201656
16	138899	2118.534953172584	121.28182710085
16	139063	2121.051621641122	38.906607877514
16	140051	2136.15163330915	5.0648368635708
16	140215	2138.668301777688	12.426737911175
16	140379	2141.184969504662	5.6322481595811
16	140547	2143.701637877412	76.799159004666
16	140711	2146.218307238406	39.908705506817
16	141203	2153.768313445716	6.0621988580806
16	141367	2156.284981914254	74.841503570675
16	141535	2158.801649641228	71.256517294776
16	141699	2161.318318013978	9.9942330514895
16	141863	2163.834987374972	61.624501821316
16	142027	2166.351656797618	65.190182289546
16	142355	2171.384993582282	17.161811150556
16	142523	2173.90166205082	80.796227163602
16	142687	2176.418329777794	86.414217749621
16	142851	2178.934998150544	100.58083377019
16	143179	2183.968336934184	5.2771324508456
16	143515	2189.001673718848	3.7929013889139
16	143679	2191.518342187386	9.6765328884699
16	144007	2196.55167828711	31.933647981866
16	144667	2206.618353855414	89.138334388623
16	144831	2209.135022323952	102.08421315266
16	145159	2214.168358423676	116.82294269556
16	145323	2216.68502778467	37.116066592782
16	145491	2219.201697207316	2.9525029618518
16	145819	2224.23503399198	68.925742310885
16	145983	2226.751702460518	99.487415643405
16	146147	2229.268370187492	4.3486607661635
16	146311	2231.785038560242	7.0236509105205
16	146479	2234.301707921236	36.634458820959
16	147299	2246.885050324058	65.433636513457
16	147467	2249.401718696808	62.201693420264
16	147795	2254.435057480448	108.37907865668
16	148123	2259.468394265112	13.457336110444
16	148287	2261.98506273365	116.76749523198
16	148459	2264.501730460624	7.8569395817064
16	148623	2267.018398833374	28.580136247766
16	148787	2269.535068194368	2.0937512911511
16	148951	2272.051737617014	87.2839920837
16	149279	2277.085074401678	10.147873113015
16	149447	2279.601742870216	4.0398153793849
16	149611	2282.11841059719	5.0253654113426
16	150435	2294.701754538244	104.66352362805
16	150599	2297.218423006782	40.954008626719
16	151091	2304.7684284675	6.06369405925
16	151587	2312.31843467481	94.250581014608
16	151751	2314.835103143348	20.957931628454
16	151915	2317.351770870322	2.2163044892739
16	152079	2319.868439243072	45.435674430068
16	152411	2324.901778026712	5.6770854947537
16	152575	2327.418445901426	145.5842424118
16	152739	2329.935114811376	5.9627006930572
16	152903	2332.451783279914	49.761389225616
16	153067	2334.968451006888	29.423604490161
16	153231	2337.485119379638	85.508326604516
16	153567	2342.518458163278	91.628886273711
16	153895	2347.551794947942	28.617238303427
16	154059	2350.06846341648	31.762029984174
16	154223	2352.585131143454	7.7671202775413
16	154391	2355.101799516204	113.34914438469
16	154719	2360.135138299844	10.016964121311
16	155543	2372.71847965277	21.592241262954
16	155707	2375.235149013764	60.064063858797
16	155871	2377.75181843641	7.0716469212468
16	156199	2382.785155221074	13.235711298065
16	156531	2387.818491416586	7.1484711028793
16	156695	2390.335159789336	15.238699926246
16	156859	2392.85182915033	28.883476072979
16	157355	2400.40183535764	5.310362865419
16	157683	2405.435171553152	7.0578334988278
16	157847	2407.951839925902	5.0840689601762
16	158011	2410.468509286896	92.487770500181
16	158175	2412.985178709542	3.2673103586258
16	158511	2418.018515494206	6.0469300197895
16	158675	2420.535183962744	129.69653869907
16	158839	2423.051851689718	8.8920828048683
16	159003	2425.568520062468	5.415198199034
16	159167	2428.085189423462	46.611048711781
16	159335	2430.601858846108	3.7903764186556
16	159663	2435.635195630772	89.314078183373
16	159827	2438.15186409931	5.7059666005706
16	159991	2440.668531826284	6.3603691230862
16	160155	2443.185200199034	95.70770335625
16	160323	2445.701869560028	9.5593872357291
16	160487	2448.218538982674	5.9543117107968
16	160815	2453.251875767338	5.3525760671729
16	160979	2455.768544235876	5.961363481391
16	161311	2460.8018803356	89.975897230105
16	161475	2463.318549696594	55.858600343185
16	161639	2465.83521911924	87.812035121675
16	161967	2470.868555903904	5.0260511542966
16	162131	2473.385224372442	4.756660516827
16	162299	2475.901892099416	7.9398230427183
16	162463	2478.418560472166	7.6744679641839
16	162791	2483.451899255806	45.747051522237
16	163119	2488.48523604047	29.57841134337
16	163291	2491.001904509008	5.8552787445749
16	163619	2496.035240608732	3.3048252302198
16	163947	2501.068579392372	7.7469283263701
16	164279	2506.101916177036	4.9333809810469
16	164443	2508.618584645574	54.206294050476
16	164607	2511.135252372548	26.085934377149
16	164771	2513.651920745298	6.9316524854892
16	164935	2516.168590106292	32.347542721543
16	165431	2523.718596313602	98.906376051971
16	165595	2526.23526478214	47.80361775107
16	165759	2528.751932509114	6.007242591543
16	165923	2531.268600881864	8.9459939601411
16	166087	2533.785270242858	5.7294623430443
16	166255	2536.301939665504	7.0769071910095
16	166583	2541.335276450168	43.059831991734
16	166747	2543.851944918706	19.350342525232
16	167243	2551.401950379424	51.705975205888
16	167735	2558.951956586734	63.833948118754
16	167899	2561.468625055272	29.608542467637
16	168891	2576.5686367233	5.5343088548874
16	169223	2581.601972918812	10.481389698027
16	169387	2584.118641291562	6.251513388855